  16  16   0   0
  0.1636635E+02  0.1292098E-08  0.5865257E-09  0.5649119E-09  0.5000000E-15
  1.000000000000000E-004
  CAR 
 unknown system                          
     12.26789180    -43.00376473  301      3.65472532      1.00000000
    -43.004  0.0000E+00  0.0000E+00
    -42.820  0.0000E+00  0.0000E+00
    -42.635  0.0000E+00  0.0000E+00
    -42.451  0.0000E+00  0.0000E+00
    -42.267  0.0000E+00  0.0000E+00
    -42.083  0.0000E+00  0.0000E+00
    -41.898  0.0000E+00  0.0000E+00
    -41.714  0.0000E+00  0.0000E+00
    -41.530  0.0000E+00  0.0000E+00
    -41.346  0.0000E+00  0.0000E+00
    -41.161  0.0000E+00  0.0000E+00
    -40.977  0.0000E+00  0.0000E+00
    -40.793  0.0000E+00  0.0000E+00
    -40.609  0.0000E+00  0.0000E+00
    -40.424  0.0000E+00  0.8000E-01
    -40.240  0.0000E+00  0.8000E-01
    -40.056  0.0000E+00  0.1200E+00
    -39.872  0.0000E+00  0.1200E+00
    -39.687  0.0000E+00  0.1200E+00
    -39.503  0.0000E+00  0.1200E+00
    -39.319  0.0000E+00  0.1200E+00
    -39.135  0.0000E+00  0.1200E+00
    -38.951  0.0000E+00  0.1200E+00
    -38.766  0.0000E+00  0.1200E+00
    -38.582  0.0000E+00  0.1200E+00
    -38.398  0.0000E+00  0.1200E+00
    -38.214  0.0000E+00  0.1200E+00
    -38.029  0.0000E+00  0.1200E+00
    -37.845  0.0000E+00  0.1200E+00
    -37.661  0.0000E+00  0.1200E+00
    -37.477  0.0000E+00  0.1200E+00
    -37.292  0.0000E+00  0.1200E+00
    -37.108  0.0000E+00  0.1200E+00
    -36.924  0.0000E+00  0.1200E+00
    -36.740  0.0000E+00  0.1200E+00
    -36.555  0.0000E+00  0.1200E+00
    -36.371  0.0000E+00  0.1200E+00
    -36.187  0.0000E+00  0.1200E+00
    -36.003  0.0000E+00  0.1200E+00
    -35.818  0.0000E+00  0.1200E+00
    -35.634  0.0000E+00  0.1200E+00
    -35.450  0.0000E+00  0.1200E+00
    -35.266  0.0000E+00  0.1200E+00
    -35.081  0.0000E+00  0.1200E+00
    -34.897  0.0000E+00  0.1200E+00
    -34.713  0.0000E+00  0.1200E+00
    -34.529  0.0000E+00  0.1200E+00
    -34.345  0.0000E+00  0.1200E+00
    -34.160  0.0000E+00  0.1200E+00
    -33.976  0.0000E+00  0.1200E+00
    -33.792  0.0000E+00  0.1200E+00
    -33.608  0.0000E+00  0.1200E+00
    -33.423  0.0000E+00  0.1200E+00
    -33.239  0.0000E+00  0.1200E+00
    -33.055  0.0000E+00  0.1200E+00
    -32.871  0.0000E+00  0.1200E+00
    -32.686  0.0000E+00  0.1200E+00
    -32.502  0.0000E+00  0.1200E+00
    -32.318  0.0000E+00  0.1200E+00
    -32.134  0.0000E+00  0.1200E+00
    -31.949  0.0000E+00  0.1200E+00
    -31.765  0.0000E+00  0.1200E+00
    -31.581  0.0000E+00  0.1200E+00
    -31.397  0.0000E+00  0.1200E+00
    -31.212  0.0000E+00  0.1200E+00
    -31.028  0.0000E+00  0.1200E+00
    -30.844  0.0000E+00  0.1200E+00
    -30.660  0.0000E+00  0.1200E+00
    -30.476  0.0000E+00  0.1200E+00
    -30.291  0.0000E+00  0.1200E+00
    -30.107  0.0000E+00  0.1200E+00
    -29.923  0.0000E+00  0.1200E+00
    -29.739  0.0000E+00  0.1200E+00
    -29.554  0.0000E+00  0.1200E+00
    -29.370  0.0000E+00  0.1200E+00
    -29.186  0.0000E+00  0.1200E+00
    -29.002  0.0000E+00  0.1200E+00
    -28.817  0.0000E+00  0.1200E+00
    -28.633  0.0000E+00  0.1200E+00
    -28.449  0.0000E+00  0.1200E+00
    -28.265  0.0000E+00  0.1200E+00
    -28.080  0.0000E+00  0.1200E+00
    -27.896  0.0000E+00  0.1200E+00
    -27.712  0.0000E+00  0.1200E+00
    -27.528  0.0000E+00  0.1200E+00
    -27.343  0.0000E+00  0.1200E+00
    -27.159  0.0000E+00  0.1200E+00
    -26.975  0.0000E+00  0.1200E+00
    -26.791  0.0000E+00  0.1200E+00
    -26.607  0.0000E+00  0.1200E+00
    -26.422  0.0000E+00  0.1200E+00
    -26.238  0.0000E+00  0.1200E+00
    -26.054  0.0000E+00  0.1200E+00
    -25.870  0.0000E+00  0.1200E+00
    -25.685  0.0000E+00  0.1200E+00
    -25.501  0.0000E+00  0.1200E+00
    -25.317  0.0000E+00  0.1200E+00
    -25.133  0.0000E+00  0.1200E+00
    -24.948  0.0000E+00  0.1200E+00
    -24.764  0.0000E+00  0.1200E+00
    -24.580  0.0000E+00  0.1200E+00
    -24.396  0.0000E+00  0.1200E+00
    -24.211  0.0000E+00  0.1200E+00
    -24.027  0.0000E+00  0.1200E+00
    -23.843  0.0000E+00  0.1200E+00
    -23.659  0.0000E+00  0.1200E+00
    -23.474  0.0000E+00  0.1200E+00
    -23.290  0.0000E+00  0.1200E+00
    -23.106  0.0000E+00  0.1200E+00
    -22.922  0.0000E+00  0.1200E+00
    -22.737  0.0000E+00  0.1200E+00
    -22.553  0.0000E+00  0.1200E+00
    -22.369  0.0000E+00  0.1200E+00
    -22.185  0.0000E+00  0.1200E+00
    -22.001  0.0000E+00  0.1200E+00
    -21.816  0.0000E+00  0.1200E+00
    -21.632  0.0000E+00  0.1200E+00
    -21.448  0.0000E+00  0.1200E+00
    -21.264  0.0000E+00  0.1200E+00
    -21.079  0.0000E+00  0.1200E+00
    -20.895  0.0000E+00  0.1200E+00
    -20.711  0.0000E+00  0.1200E+00
    -20.527  0.0000E+00  0.1200E+00
    -20.342  0.0000E+00  0.1200E+00
    -20.158  0.0000E+00  0.1200E+00
    -19.974  0.0000E+00  0.1200E+00
    -19.790  0.0000E+00  0.1200E+00
    -19.605  0.0000E+00  0.1200E+00
    -19.421  0.0000E+00  0.1200E+00
    -19.237  0.0000E+00  0.1200E+00
    -19.053  0.0000E+00  0.1200E+00
    -18.868  0.0000E+00  0.1200E+00
    -18.684  0.0000E+00  0.1200E+00
    -18.500  0.0000E+00  0.1200E+00
    -18.316  0.0000E+00  0.1200E+00
    -18.132  0.0000E+00  0.1200E+00
    -17.947  0.0000E+00  0.1200E+00
    -17.763  0.0000E+00  0.1200E+00
    -17.579  0.0000E+00  0.1200E+00
    -17.395  0.0000E+00  0.1200E+00
    -17.210  0.0000E+00  0.1200E+00
    -17.026  0.0000E+00  0.1200E+00
    -16.842  0.0000E+00  0.1200E+00
    -16.658  0.0000E+00  0.1200E+00
    -16.473  0.0000E+00  0.1200E+00
    -16.289  0.0000E+00  0.1200E+00
    -16.105  0.0000E+00  0.1200E+00
    -15.921  0.0000E+00  0.1200E+00
    -15.736  0.0000E+00  0.1200E+00
    -15.552  0.0000E+00  0.1200E+00
    -15.368  0.0000E+00  0.1200E+00
    -15.184  0.0000E+00  0.1200E+00
    -14.999  0.0000E+00  0.1200E+00
    -14.815  0.0000E+00  0.1200E+00
    -14.631  0.0000E+00  0.1200E+00
    -14.447  0.0000E+00  0.1200E+00
    -14.263  0.0000E+00  0.1200E+00
    -14.078  0.0000E+00  0.1200E+00
    -13.894  0.0000E+00  0.1200E+00
    -13.710  0.0000E+00  0.1200E+00
    -13.526  0.0000E+00  0.1200E+00
    -13.341  0.0000E+00  0.1200E+00
    -13.157  0.0000E+00  0.1200E+00
    -12.973  0.0000E+00  0.1200E+00
    -12.789  0.0000E+00  0.1200E+00
    -12.604  0.0000E+00  0.1200E+00
    -12.420  0.0000E+00  0.1200E+00
    -12.236  0.0000E+00  0.1200E+00
    -12.052  0.0000E+00  0.1200E+00
    -11.867  0.0000E+00  0.1200E+00
    -11.683  0.8492E-01  0.1233E+00
    -11.499  0.1271E+00  0.1557E+00
    -11.315  0.0000E+00  0.1600E+00
    -11.130  0.0000E+00  0.1600E+00
    -10.946  0.0000E+00  0.1600E+00
    -10.762  0.0000E+00  0.1600E+00
    -10.578  0.0000E+00  0.1600E+00
    -10.393  0.0000E+00  0.1600E+00
    -10.209  0.0000E+00  0.1600E+00
    -10.025  0.0000E+00  0.1600E+00
     -9.841  0.0000E+00  0.1600E+00
     -9.657  0.0000E+00  0.1600E+00
     -9.472  0.0000E+00  0.1600E+00
     -9.288  0.0000E+00  0.1600E+00
     -9.104  0.0000E+00  0.1600E+00
     -8.920  0.0000E+00  0.1600E+00
     -8.735  0.1337E+00  0.1896E+00
     -8.551  0.2110E+00  0.2167E+00
     -8.367  0.1015E+00  0.2509E+00
     -8.183  0.5665E-01  0.2751E+00
     -7.998  0.1584E-02  0.2800E+00
     -7.814  0.0000E+00  0.2800E+00
     -7.630  0.0000E+00  0.2800E+00
     -7.446  0.0000E+00  0.2800E+00
     -7.261  0.0000E+00  0.2800E+00
     -7.077  0.0000E+00  0.2800E+00
     -6.893  0.0000E+00  0.2800E+00
     -6.709  0.0000E+00  0.2800E+00
     -6.524  0.0000E+00  0.2800E+00
     -6.340  0.0000E+00  0.2800E+00
     -6.156  0.0000E+00  0.2800E+00
     -5.972  0.0000E+00  0.2800E+00
     -5.788  0.0000E+00  0.2800E+00
     -5.603  0.0000E+00  0.2800E+00
     -5.419  0.0000E+00  0.2800E+00
     -5.235  0.0000E+00  0.2800E+00
     -5.051  0.0000E+00  0.2800E+00
     -4.866  0.0000E+00  0.2800E+00
     -4.682  0.4706E-02  0.2802E+00
     -4.498  0.2551E-01  0.2829E+00
     -4.314  0.5141E-01  0.2896E+00
     -4.129  0.3473E-01  0.3014E+00
     -3.945  0.5880E-01  0.3131E+00
     -3.761  0.5834E-02  0.3198E+00
     -3.577  0.0000E+00  0.3200E+00
     -3.392  0.0000E+00  0.3200E+00
     -3.208  0.0000E+00  0.3200E+00
     -3.024  0.0000E+00  0.3200E+00
     -2.840  0.0000E+00  0.3200E+00
     -2.655  0.0000E+00  0.3200E+00
     -2.471  0.0000E+00  0.3200E+00
     -2.287  0.0000E+00  0.3200E+00
     -2.103  0.0000E+00  0.3200E+00
     -1.919  0.8482E-01  0.3283E+00
     -1.734  0.1123E+00  0.3426E+00
     -1.550  0.1030E+00  0.3623E+00
     -1.366  0.8115E-01  0.3772E+00
     -1.182  0.9377E-01  0.3914E+00
     -0.997  0.6823E-01  0.4055E+00
     -0.813  0.6400E-01  0.4173E+00
     -0.629  0.6015E-01  0.4292E+00
     -0.445  0.1647E-01  0.4397E+00
     -0.260  0.0000E+00  0.4400E+00
     -0.076  0.0000E+00  0.4400E+00
      0.108  0.2398E-02  0.4401E+00
      0.292  0.4047E-01  0.4432E+00
      0.477  0.9929E-01  0.4552E+00
      0.661  0.8156E-01  0.4704E+00
      0.845  0.1122E+00  0.4887E+00
      1.029  0.7595E-01  0.5060E+00
      1.214  0.7332E-01  0.5201E+00
      1.398  0.1380E+00  0.5372E+00
      1.582  0.1103E+00  0.5602E+00
      1.766  0.1157E+00  0.5806E+00
      1.951  0.1139E+00  0.5990E+00
      2.135  0.7116E-01  0.6183E+00
      2.319  0.9680E-01  0.6382E+00
      2.503  0.9169E-01  0.6519E+00
      2.687  0.1580E+00  0.6755E+00
      2.872  0.1156E+00  0.6946E+00
      3.056  0.1297E+00  0.7149E+00
      3.240  0.9096E-01  0.7326E+00
      3.424  0.6763E-01  0.7507E+00
      3.609  0.1523E-01  0.7599E+00
      3.793  0.0000E+00  0.7600E+00
      3.977  0.0000E+00  0.7600E+00
      4.161  0.0000E+00  0.7600E+00
      4.346  0.0000E+00  0.7600E+00
      4.530  0.0000E+00  0.7600E+00
      4.714  0.0000E+00  0.7600E+00
      4.898  0.0000E+00  0.7600E+00
      5.083  0.0000E+00  0.7600E+00
      5.267  0.0000E+00  0.7600E+00
      5.451  0.0000E+00  0.7600E+00
      5.635  0.0000E+00  0.7600E+00
      5.820  0.0000E+00  0.7600E+00
      6.004  0.0000E+00  0.7600E+00
      6.188  0.5308E-02  0.7602E+00
      6.372  0.3446E-01  0.7640E+00
      6.556  0.3892E-01  0.7716E+00
      6.741  0.6810E-01  0.7804E+00
      6.925  0.5641E-01  0.7920E+00
      7.109  0.1332E-01  0.7996E+00
      7.293  0.8293E-01  0.8166E+00
      7.478  0.1347E+00  0.8292E+00
      7.662  0.4573E-01  0.8429E+00
      7.846  0.1232E+00  0.8565E+00
      8.030  0.7606E-01  0.8732E+00
      8.215  0.8766E-01  0.8876E+00
      8.399  0.8182E-01  0.9019E+00
      8.583  0.5034E-01  0.9150E+00
      8.767  0.4735E-01  0.9221E+00
      8.952  0.4408E-01  0.9313E+00
      9.136  0.5074E-01  0.9398E+00
      9.320  0.7441E-01  0.9492E+00
      9.504  0.9453E-02  0.9595E+00
      9.689  0.3373E-03  0.9600E+00
      9.873  0.0000E+00  0.9600E+00
     10.057  0.0000E+00  0.9600E+00
     10.241  0.0000E+00  0.9600E+00
     10.426  0.0000E+00  0.9600E+00
     10.610  0.0000E+00  0.9600E+00
     10.794  0.0000E+00  0.9600E+00
     10.978  0.0000E+00  0.9600E+00
     11.162  0.0000E+00  0.9600E+00
     11.347  0.0000E+00  0.9600E+00
     11.531  0.0000E+00  0.9600E+00
     11.715  0.0000E+00  0.9600E+00
     11.899  0.0000E+00  0.9600E+00
     12.084  0.0000E+00  0.9600E+00
     12.268  0.0000E+00  0.9600E+00
