       N       E                     dE             d eps       ncg     rms          rms(c)
DAV:   1     0.493376235756E+03    0.49338E+03   -0.28742E+04  3456   0.132E+03
DAV:   2    -0.119950184785E+02   -0.50537E+03   -0.48071E+03  4064   0.314E+02
DAV:   3    -0.725709620960E+02   -0.60576E+02   -0.60023E+02  4784   0.957E+01
DAV:   4    -0.785197101363E+02   -0.59487E+01   -0.59241E+01  6232   0.293E+01
DAV:   5    -0.791150006369E+02   -0.59529E+00   -0.59515E+00  5120   0.635E+00    0.247E+01
RMM:   6    -0.775022582487E+02    0.16127E+01   -0.41814E+00  3689   0.495E+00    0.156E+01
RMM:   7    -0.771986097848E+02    0.30365E+00   -0.28472E+00  3837   0.438E+00    0.249E+00
RMM:   8    -0.771007007981E+02    0.97909E-01   -0.19102E-01  4174   0.146E+00    0.638E-01
RMM:   9    -0.770946131268E+02    0.60877E-02   -0.40600E-02  4181   0.609E-01    0.243E-01
RMM:  10    -0.770945653963E+02    0.47730E-04   -0.11154E-02  4740   0.293E-01    0.187E-01
RMM:  11    -0.770946162169E+02   -0.50821E-04   -0.39387E-03  4742   0.170E-01    0.592E-02
RMM:  12    -0.770947883625E+02   -0.17215E-03   -0.19406E-03  4503   0.104E-01    0.267E-02
RMM:  13    -0.770948476011E+02   -0.59239E-04   -0.65245E-04  3145   0.672E-02    0.190E-02
RMM:  14    -0.770948761741E+02   -0.28573E-04   -0.35161E-04  3914   0.570E-02    0.750E-03
RMM:  15    -0.770948855177E+02   -0.93435E-05   -0.11352E-04  2590   0.429E-02
   1 F= -.77094886E+02 E0= -.77094886E+02  d E =-.770949E+02
       N       E                     dE             d eps       ncg     rms          rms(c)
DAV:   1    -0.770949127382E+02   -0.36564E-04   -0.35323E-03  4000   0.277E-01    0.769E-02
RMM:   2    -0.770949320852E+02   -0.19347E-04   -0.23842E-04  4160   0.654E-02    0.101E-02
RMM:   3    -0.770949276540E+02    0.44312E-05    0.18644E-06  2227   0.260E-02
   2 F= -.77094928E+02 E0= -.77094928E+02  d E =-.421363E-04
       N       E                     dE             d eps       ncg     rms          rms(c)
DAV:   1    -0.770949360595E+02   -0.39743E-05   -0.12163E-04  4472   0.316E-02    0.132E-02
RMM:   2    -0.770949360239E+02    0.35579E-07   -0.88454E-06  1763   0.109E-02
   3 F= -.77094936E+02 E0= -.77094936E+02  d E =-.505063E-04
