 vasp.5.4.4.18Apr17-6-g9f103f2a35 (build Feb 28 2020 14:15:47) complex          
  
 executed on             LinuxIFC date 2022.11.20  05:26:52
 running on   64 total cores
 distrk:  each k-point on   64 cores,    1 groups
 distr:  one band on NCORES_PER_BAND=  16 cores,    4 groups


--------------------------------------------------------------------------------------------------------


 INCAR:
 POTCAR:    PAW P 26Mar2009                       
 POTCAR:    PAW S 27Mar2009                       
 POTCAR:    PAW Li_sv 10Sep2004                   
 POTCAR:    PAW P 26Mar2009                       
   VRHFIN =P : s2p3                                                             
   LEXCH  = CA                                                                  
   EATOM  =   176.5121 eV,   12.9733 Ry                                         
                                                                                
   TITEL  = PAW P 26Mar2009                                                     
   LULTRA =        F    use ultrasoft PP ?                                      
   IUNSCR =        1    unscreen: 0-lin 1-nonlin 2-no                           
   RPACOR =    1.500    partial core radius                                     
   POMASS =   30.974; ZVAL   =    5.000    mass and valenz                      
   RCORE  =    1.900    outmost cutoff radius                                   
   RWIGS  =    2.330; RWIGS  =    1.233    wigner-seitz radius (au A)           
   ENMAX  =  255.155; ENMIN  =  191.366 eV                                      
   ICORE  =        2    local potential                                         
   LCOR   =        T    correct aug charges                                     
   LPAW   =        T    paw PP                                                  
   EAUG   =  342.924                                                            
   DEXC   =    0.000                                                            
   RMAX   =    1.935    core radius for proj-oper                               
   RAUG   =    1.300    factor for augmentation sphere                          
   RDEP   =    1.931    radius for radial grids                                 
   RDEPT  =    1.780    core radius for aug-charge                              
                                                                                
   Atomic configuration                                                         
    6 entries                                                                   
     n  l   j            E        occ.                                          
     1  0  0.50     -2072.7761   2.0000                                         
     2  0  0.50      -172.9483   2.0000                                         
     2  1  1.50      -124.4644   6.0000                                         
     3  0  0.50       -14.0086   2.0000                                         
     3  1  0.50        -5.6037   3.0000                                         
     3  2  1.50        -6.8029   0.0000                                         
   Description                                                                  
     l       E           TYP  RCUT    TYP  RCUT                                 
     0    -14.0086211     23  1.900                                             
     0    -11.8189335     23  1.900                                             
     1     -5.6037292     23  1.900                                             
     1     -0.3527308     23  1.900                                             
     2     -6.8029130     23  1.900                                             
  local pseudopotential read in
  partial core-charges read in
  partial kinetic energy density read in
  atomic valenz-charges read in
  non local Contribution for L=           0  read in
    real space projection operators read in
  non local Contribution for L=           0  read in
    real space projection operators read in
  non local Contribution for L=           1  read in
    real space projection operators read in
  non local Contribution for L=           1  read in
    real space projection operators read in
    PAW grid and wavefunctions read in
 
   number of l-projection  operators is LMAX  =           4
   number of lm-projection operators is LMMAX =           8
 
 POTCAR:    PAW S 27Mar2009                       
   VRHFIN =S : s2p4                                                             
   LEXCH  = CA                                                                  
   EATOM  =   277.3745 eV,   20.3864 Ry                                         
                                                                                
   TITEL  = PAW S 27Mar2009                                                     
   LULTRA =        F    use ultrasoft PP ?                                      
   IUNSCR =        1    unscreen: 0-lin 1-nonlin 2-no                           
   RPACOR =    1.500    partial core radius                                     
   POMASS =   32.066; ZVAL   =    6.000    mass and valenz                      
   RCORE  =    1.900    outmost cutoff radius                                   
   RWIGS  =    2.200; RWIGS  =    1.164    wigner-seitz radius (au A)           
   ENMAX  =  258.602; ENMIN  =  193.952 eV                                      
   ICORE  =        2    local potential                                         
   LCOR   =        T    correct aug charges                                     
   LPAW   =        T    paw PP                                                  
   EAUG   =  335.092                                                            
   DEXC   =    0.000                                                            
   RMAX   =    1.942    core radius for proj-oper                               
   RAUG   =    1.300    factor for augmentation sphere                          
   RDEP   =    1.954    radius for radial grids                                 
   RDEPT  =    1.744    core radius for aug-charge                              
                                                                                
   Atomic configuration                                                         
    6 entries                                                                   
     n  l   j            E        occ.                                          
     1  0  0.50     -2393.1495   2.0000                                         
     2  0  0.50      -210.5411   2.0000                                         
     2  1  1.50      -156.4410   6.0000                                         
     3  0  0.50       -17.2664   2.0000                                         
     3  1  0.50        -7.1129   4.0000                                         
     3  2  1.50        -8.1635   0.0000                                         
   Description                                                                  
     l       E           TYP  RCUT    TYP  RCUT                                 
     0    -17.2664422     23  1.900                                             
     0    -15.8420823     23  1.900                                             
     1     -7.1129072     23  1.900                                             
     1     -2.8398274     23  1.900                                             
     2     -8.1634956     23  1.900                                             
  local pseudopotential read in
  partial core-charges read in
  partial kinetic energy density read in
  atomic valenz-charges read in
  non local Contribution for L=           0  read in
    real space projection operators read in
  non local Contribution for L=           0  read in
    real space projection operators read in
  non local Contribution for L=           1  read in
    real space projection operators read in
  non local Contribution for L=           1  read in
    real space projection operators read in
    PAW grid and wavefunctions read in
 
   number of l-projection  operators is LMAX  =           4
   number of lm-projection operators is LMMAX =           8
 
 POTCAR:    PAW Li_sv 10Sep2004                   
   VRHFIN =Li: 1s2s                                                             
   LEXCH  = CA                                                                  
   EATOM  =   199.5738 eV,   14.6683 Ry                                         
                                                                                
   TITEL  = PAW Li_sv 10Sep2004                                                 
   LULTRA =        F    use ultrasoft PP ?                                      
   IUNSCR =        0    unscreen: 0-lin 1-nonlin 2-no                           
   RPACOR =    0.000    partial core radius                                     
   POMASS =    7.010; ZVAL   =    3.000    mass and valenz                      
   RCORE  =    1.700    outmost cutoff radius                                   
   RWIGS  =    2.050; RWIGS  =    1.085    wigner-seitz radius (au A)           
   ENMAX  =  498.387; ENMIN  =  373.790 eV                                      
   ICORE  =        2    local potential                                         
   LCOR   =        T    correct aug charges                                     
   LPAW   =        T    paw PP                                                  
   EAUG   =  628.945                                                            
   RMAX   =    1.732    core radius for proj-oper                               
   RAUG   =    1.300    factor for augmentation sphere                          
   RDEP   =    1.728    radius for radial grids                                 
   RDEPT  =    1.329    core radius for aug-charge                              
                                                                                
   Atomic configuration                                                         
    4 entries                                                                   
     n  l   j            E        occ.                                          
     1  0  0.50       -51.0884   2.0000                                         
     2  0  0.50        -2.8766   1.0000                                         
     2  1  0.50        -2.8708   0.0000                                         
     3  2  1.50        -1.3606   0.0000                                         
   Description                                                                  
     l       E           TYP  RCUT    TYP  RCUT                                 
     0    -51.0884324     23  1.400                                             
     0     -2.8766458     23  1.700                                             
     1     -2.8708293     23  1.400                                             
     2     -1.3605826     23  1.400                                             
  local pseudopotential read in
  atomic valenz-charges read in
  non local Contribution for L=           0  read in
    real space projection operators read in
  non local Contribution for L=           0  read in
    real space projection operators read in
  non local Contribution for L=           1  read in
    real space projection operators read in
    PAW grid and wavefunctions read in
 
   number of l-projection  operators is LMAX  =           3
   number of lm-projection operators is LMMAX =           5
 
 Optimization of the real space projectors (new method)

 maximal supplied QI-value         = 19.84
 optimisation between [QCUT,QGAM] = [ 10.32, 20.83] = [ 29.81,121.55] Ry 
 Optimized for a Real-space Cutoff    1.39 Angstroem

   l    n(q)    QCUT    max X(q) W(low)/X(q) W(high)/X(q)  e(spline) 
   0      9    10.318   158.476    0.64E-04    0.80E-04    0.60E-07
   0      9    10.318   128.097    0.63E-04    0.79E-04    0.60E-07
   1      8    10.318    73.217    0.18E-03    0.19E-03    0.20E-06
   1      8    10.318    48.248    0.18E-03    0.19E-03    0.19E-06
 Optimization of the real space projectors (new method)

 maximal supplied QI-value         = 19.84
 optimisation between [QCUT,QGAM] = [ 10.32, 20.83] = [ 29.81,121.55] Ry 
 Optimized for a Real-space Cutoff    1.39 Angstroem

   l    n(q)    QCUT    max X(q) W(low)/X(q) W(high)/X(q)  e(spline) 
   0      9    10.318   180.455    0.73E-04    0.81E-04    0.62E-07
   0      9    10.318   157.733    0.72E-04    0.81E-04    0.62E-07
   1      8    10.318    66.201    0.18E-03    0.20E-03    0.20E-06
   1      8    10.318    49.617    0.18E-03    0.20E-03    0.20E-06
 Optimization of the real space projectors (new method)

 maximal supplied QI-value         = 22.11
 optimisation between [QCUT,QGAM] = [ 10.39, 20.78] = [ 30.24,120.96] Ry 
 Optimized for a Real-space Cutoff    1.20 Angstroem

   l    n(q)    QCUT    max X(q) W(low)/X(q) W(high)/X(q)  e(spline) 
   0      7    10.392    10.443    0.77E-04    0.41E-05    0.30E-07
   0      7    10.392     8.514    0.20E-03    0.36E-04    0.67E-07
   1      7    10.392     5.406    0.20E-03    0.20E-03    0.12E-06
  PAW P 26Mar2009                       :
 energy of atom  1       EATOM= -176.5121
 kinetic energy error for atom=    0.0021 (will be added to EATOM!!)
  PAW S 27Mar2009                       :
 energy of atom  2       EATOM= -277.3745
 kinetic energy error for atom=    0.0041 (will be added to EATOM!!)
  PAW Li_sv 10Sep2004                   :
 energy of atom  3       EATOM= -199.5738
 kinetic energy error for atom=    0.0564 (will be added to EATOM!!)
 
 
 POSCAR: Good luck                               
  positions in cartesian coordinates
  No initial velocities read in
 exchange correlation table for  LEXCH =        2
   RHO(1)=    0.500       N(1)  =     2000
   RHO(2)=  100.500       N(2)  =     4000
 


--------------------------------------------------------------------------------------------------------


 ion  position               nearest neighbor table
   1  0.212  0.976  0.896-   4 2.04   5 2.04   6 2.04   3 2.05
   2  0.712  0.128  0.397-  10 2.04   8 2.04   7 2.04   9 2.05
   3  0.172  0.276  0.572-   1 2.05  13 2.40  12 2.53  14 2.55
   4  0.390  0.100  0.776-   1 2.04  13 2.42  11 2.45  12 2.65
   5  0.036  0.445  0.016-   1 2.04  13 2.43  14 2.45  15 2.69
   6  0.251  0.074  0.218-   1 2.04  13 2.41  15 2.54  11 2.55
   7  0.751  0.825  0.719-   2 2.04  16 2.41  11 2.54  15 2.55
   8  0.535  0.008  0.518-   2 2.04  16 2.42  12 2.45
   9  0.673  0.032  0.073-   2 2.05  16 2.41  14 2.53  12 2.55
  10  0.889  0.658  0.276-   2 2.04  16 2.42  15 2.45  14 2.67
  11  0.510  0.425  0.032-   4 2.45   7 2.54   6 2.55
  12  0.414  0.693  0.255-   8 2.45   3 2.53   9 2.55   4 2.65
  13  0.215  0.477  0.888-   3 2.40   6 2.41   4 2.42   5 2.43
  14  0.914  0.658  0.758-   5 2.45   9 2.53   3 2.55  10 2.67
  15  0.010  0.440  0.533-  10 2.45   6 2.54   7 2.55   5 2.69
  16  0.713  0.637  0.394-   9 2.41   7 2.41  10 2.42   8 2.42
 
  LATTYP: Found a triclinic cell.
 ALAT       =    12.3357056999
 B/A-ratio  =     0.7831458081
 C/A-ratio  =     0.4754699025
 COS(alpha) =     0.0007090378
 COS(beta)  =     0.2381002862
 COS(gamma) =     0.8962450489
  
  Lattice vectors:
  
 A1 = (  -5.0966609136,  -8.6049150196,   7.2214347709)
 A2 = (  -7.3735067467,  -5.3581571263,   3.2015353894)
 A3 = (   2.9590168717,  -4.8825319033,  -1.3440009438)


Analysis of symmetry for initial positions (statically):
=====================================================================
 Subroutine PRICEL returns:
 Original cell was already a primitive cell.
 

 Routine SETGRP: Setting up the symmetry group for a 
 triclinic supercell.


 Subroutine GETGRP returns: Found  1 space group operations
 (whereof  1 operations were pure point group operations)
 out of a pool of  2 trial point group operations.


The static configuration has the point symmetry C_1 .


Analysis of symmetry for dynamics (positions and initial velocities):
=====================================================================
 Subroutine PRICEL returns:
 Original cell was already a primitive cell.
 

 Routine SETGRP: Setting up the symmetry group for a 
 triclinic supercell.


 Subroutine GETGRP returns: Found  1 space group operations
 (whereof  1 operations were pure point group operations)
 out of a pool of  2 trial point group operations.


The dynamic configuration has the point symmetry C_1 .


 Subroutine INISYM returns: Found  1 space group operations
 (whereof  1 operations are pure point group operations),
 and found     1 'primitive' translations

 
 
 KPOINTS: Automatic mesh                          

Automatic generation of k-mesh.
Space group operators:
 irot       det(A)        alpha          n_x          n_y          n_z        tau_x        tau_y        tau_z
    1     1.000000     0.000000     1.000000     0.000000     0.000000     0.000000     0.000000     0.000000
 
 Subroutine IBZKPT returns following result:
 ===========================================
 
 Found     36 irreducible k-points:
 
 Following reciprocal coordinates:
            Coordinates               Weight
  0.000000  0.000000  0.000000      1.000000
  0.250000 -0.000000 -0.000000      2.000000
  0.500000 -0.000000 -0.000000      1.000000
  0.000000  0.250000  0.000000      2.000000
  0.250000  0.250000  0.000000      2.000000
  0.500000  0.250000  0.000000      2.000000
 -0.250000  0.250000  0.000000      2.000000
  0.000000  0.500000  0.000000      1.000000
  0.250000  0.500000  0.000000      2.000000
  0.500000  0.500000  0.000000      1.000000
 -0.000000  0.000000  0.250000      2.000000
  0.250000  0.000000  0.250000      2.000000
  0.500000  0.000000  0.250000      2.000000
 -0.250000  0.000000  0.250000      2.000000
  0.000000  0.250000  0.250000      2.000000
  0.250000  0.250000  0.250000      2.000000
  0.500000  0.250000  0.250000      2.000000
 -0.250000  0.250000  0.250000      2.000000
 -0.000000  0.500000  0.250000      2.000000
  0.250000  0.500000  0.250000      2.000000
  0.500000  0.500000  0.250000      2.000000
 -0.250000  0.500000  0.250000      2.000000
 -0.000000 -0.250000  0.250000      2.000000
  0.250000 -0.250000  0.250000      2.000000
  0.500000 -0.250000  0.250000      2.000000
 -0.250000 -0.250000  0.250000      2.000000
 -0.000000  0.000000  0.500000      1.000000
  0.250000  0.000000  0.500000      2.000000
  0.500000  0.000000  0.500000      1.000000
  0.000000  0.250000  0.500000      2.000000
  0.250000  0.250000  0.500000      2.000000
  0.500000  0.250000  0.500000      2.000000
 -0.250000  0.250000  0.500000      2.000000
  0.000000  0.500000  0.500000      1.000000
  0.250000  0.500000  0.500000      2.000000
  0.500000  0.500000  0.500000      1.000000
 
 Following cartesian coordinates:
            Coordinates               Weight
  0.000000  0.000000  0.000000      1.000000
  0.022904  0.014278 -0.001441      2.000000
  0.045808  0.028555 -0.002882      1.000000
  0.013370  0.064229 -0.017887      2.000000
  0.036274  0.078507 -0.019328      2.000000
  0.059178  0.092785 -0.020769      2.000000
 -0.009534  0.049952 -0.016446      2.000000
  0.026740  0.128459 -0.035774      1.000000
  0.049644  0.142736 -0.037215      2.000000
  0.072548  0.157014 -0.038656      1.000000
 -0.001106 -0.014694  0.050948      2.000000
  0.021799 -0.000417  0.049507      2.000000
  0.044703  0.013861  0.048066      2.000000
 -0.024010 -0.028972  0.052390      2.000000
  0.012264  0.049535  0.033061      2.000000
  0.035169  0.063813  0.031620      2.000000
  0.058073  0.078090  0.030179      2.000000
 -0.010640  0.035257  0.034503      2.000000
  0.025634  0.113764  0.015174      2.000000
  0.048538  0.128042  0.013733      2.000000
  0.071443  0.142320  0.012292      2.000000
  0.002730  0.099487  0.016616      2.000000
 -0.014475 -0.078924  0.068836      2.000000
  0.008429 -0.064646  0.067394      2.000000
  0.031333 -0.050369  0.065953      2.000000
 -0.037380 -0.093201  0.070277      2.000000
 -0.002211 -0.029389  0.101897      1.000000
  0.020693 -0.015111  0.100456      2.000000
  0.043597 -0.000834  0.099015      1.000000
  0.011159  0.034840  0.084010      2.000000
  0.034063  0.049118  0.082569      2.000000
  0.056967  0.063396  0.081128      2.000000
 -0.011745  0.020563  0.085451      2.000000
  0.024529  0.099070  0.066123      1.000000
  0.047433  0.113347  0.064682      2.000000
  0.070337  0.127625  0.063241      1.000000
 
 TETIRR: Found    192 inequivalent tetrahedra from      384


--------------------------------------------------------------------------------------------------------




 Dimension of arrays:
   k-points           NKPTS =     36   k-points in BZ     NKDIM =     36   number of bands    NBANDS=     48
   number of dos      NEDOS =    301   number of ions     NIONS =     16
   non local maximal  LDIM  =      4   non local SUM 2l+1 LMDIM =      8
   total plane-waves  NPLWV = 144000
   max r-space proj   IRMAX =   6205   max aug-charges    IRDMAX=  17522
   dimension x,y,z NGX =    90 NGY =   40 NGZ =   40
   dimension x,y,z NGXF=   180 NGYF=   80 NGZF=   80
   support grid    NGXF=   180 NGYF=   80 NGZF=   80
   ions per type =               2   8   6
   NGX,Y,Z   is equivalent  to a cutoff of  11.58, 11.34, 11.77 a.u.
   NGXF,Y,Z  is equivalent  to a cutoff of  23.16, 22.68, 23.54 a.u.

 SYSTEM =  unknown system                          
 POSCAR =  Good luck                               

 Startparameter for this run:
   NWRITE =      2    write-flag & timer
   PREC   = accura    normal or accurate (medium, high low for compatibility)
   ISTART =      0    job   : 0-new  1-cont  2-samecut
   ICHARG =      2    charge: 1-file 2-atom 10-const
   ISPIN  =      1    spin polarized calculation?
   LNONCOLLINEAR =      F non collinear calculations
   LSORBIT =      F    spin-orbit coupling
   INIWAV =      1    electr: 0-lowe 1-rand  2-diag
   LASPH  =      F    aspherical Exc in radial PAW
   METAGGA=      F    non-selfconsistent MetaGGA calc.

 Electronic Relaxation 1
   ENCUT  =  420.0 eV  30.87 Ry    5.56 a.u.  21.59  9.80  9.44*2*pi/ulx,y,z
   ENINI  =  420.0     initial cutoff
   ENAUG  =  628.9 eV  augmentation charge cutoff
   NELM   =    100;   NELMIN=  2; NELMDL= -5     # of ELM steps 
   EDIFF  = 0.2E-04   stopping-criterion for ELM
   LREAL  =      T    real-space projection
   NLSPLINE    = F    spline interpolate recip. space projectors
   LCOMPAT=      F    compatible to vasp.4.4
   GGA_COMPAT  = T    GGA compatible to vasp.4.4-vasp.4.6
   LMAXPAW     = -100 max onsite density
   LMAXMIX     =    2 max onsite mixed and CHGCAR
   VOSKOWN=      0    Vosko Wilk Nusair interpolation
   ROPT   =   -0.00025  -0.00025  -0.00025
 Ionic relaxation
   EDIFFG = 0.2E-03   stopping-criterion for IOM
   NSW    =    100    number of steps for IOM
   NBLOCK =      1;   KBLOCK =    100    inner block; outer block 
   IBRION =      2    ionic relax: 0-MD 1-quasi-New 2-CG
   NFREE  =      1    steps in history (QN), initial steepest desc. (CG)
   ISIF   =      3    stress and relaxation
   IWAVPR =     11    prediction:  0-non 1-charg 2-wave 3-comb
   ISYM   =      2    0-nonsym 1-usesym 2-fastsym
   LCORR  =      T    Harris-Foulkes like correction to forces

   POTIM  = 0.5000    time-step for ionic-motion
   TEIN   =    0.0    initial temperature
   TEBEG  =    0.0;   TEEND  =   0.0 temperature during run
   SMASS  =  -3.00    Nose mass-parameter (am)
   estimated Nose-frequenzy (Omega)   =  0.10E-29 period in steps =****** mass=  -0.382E-26a.u.
   SCALEE = 1.0000    scale energy and forces
   NPACO  =    256;   APACO  = 16.0  distance and # of slots for P.C.
   PSTRESS=    0.0 pullay stress

  Mass of Ions in am
   POMASS =  30.97 32.07  7.01
  Ionic Valenz
   ZVAL   =   5.00  6.00  3.00
  Atomic Wigner-Seitz radii
   RWIGS  =  -1.00 -1.00 -1.00
  virtual crystal weights 
   VCA    =   1.00  1.00  1.00
   NELECT =      76.0000    total number of electrons
   NUPDOWN=      -1.0000    fix difference up-down

 DOS related values:
   EMIN   =  10.00;   EMAX   =-10.00  energy-range for DOS
   EFERMI =   0.00
   ISMEAR =    -5;   SIGMA  =   0.20  broadening in eV -4-tet -1-fermi 0-gaus

 Electronic relaxation 2 (details)
   IALGO  =     68    algorithm
   LDIAG  =      T    sub-space diagonalisation (order eigenvalues)
   LSUBROT=      F    optimize rotation matrix (better conditioning)
   TURBO    =      0    0=normal 1=particle mesh
   IRESTART =      0    0=no restart 2=restart with 2 vectors
   NREBOOT  =      0    no. of reboots
   NMIN     =      0    reboot dimension
   EREF     =   0.00    reference energy to select bands
   IMIX   =      4    mixing-type and parameters
     AMIX     =   0.40;   BMIX     =  1.00
     AMIX_MAG =   1.60;   BMIX_MAG =  1.00
     AMIN     =   0.10
     WC   =   100.;   INIMIX=   1;  MIXPRE=   1;  MAXMIX= -45

 Intra band minimization:
   WEIMIN = 0.0010     energy-eigenvalue tresh-hold
   EBREAK =  0.10E-06  absolut break condition
   DEPER  =   0.30     relativ break condition  

   TIME   =   0.40     timestep for ELM

  volume/ion in A,a.u.               =      16.37       110.45
  Fermi-wavevector in a.u.,A,eV,Ry     =   1.083899  2.048272 15.984623  1.174837
  Thomas-Fermi vector in A             =   2.219976
 
 Write flags
   LWAVE        =      F    write WAVECAR
   LDOWNSAMPLE  =      F    k-point downsampling of WAVECAR
   LCHARG       =      F    write CHGCAR
   LVTOT        =      F    write LOCPOT, total local potential
   LVHAR        =      F    write LOCPOT, Hartree potential only
   LELF         =      F    write electronic localiz. function (ELF)
   LORBIT       =      0    0 simple, 1 ext, 2 COOP (PROOUT), +10 PAW based schemes


 Dipole corrections
   LMONO  =      F    monopole corrections only (constant potential shift)
   LDIPOL =      F    correct potential (dipole corrections)
   IDIPOL =      0    1-x, 2-y, 3-z, 4-all directions 
   EPSILON=  1.0000000 bulk dielectric constant

 Exchange correlation treatment:
   GGA     =    --    GGA type
   LEXCH   =     2    internal setting for exchange type
   VOSKOWN=      0    Vosko Wilk Nusair interpolation
   LHFCALC =     F    Hartree Fock is set to
   LHFONE  =     F    Hartree Fock one center treatment
   AEXX    =    0.0000 exact exchange contribution

 Linear response parameters
   LEPSILON=     F    determine dielectric tensor
   LRPA    =     F    only Hartree local field effects (RPA)
   LNABLA  =     F    use nabla operator in PAW spheres
   LVEL    =     F    velocity operator in full k-point grid
   LINTERFAST=   F  fast interpolation
   KINTER  =     0    interpolate to denser k-point grid
   CSHIFT  =0.1000    complex shift for real part using Kramers Kronig
   OMEGAMAX=  -1.0    maximum frequency
   DEG_THRESHOLD= 0.2000000E-02 threshold for treating states as degnerate
   RTIME   =   -0.100 relaxation time in fs
  (WPLASMAI=    0.000 imaginary part of plasma frequency in eV, 0.658/RTIME)
   DFIELD  = 0.0000000 0.0000000 0.0000000 field for delta impulse in time
 
 Orbital magnetization related:
   ORBITALMAG=     F  switch on orbital magnetization
   LCHIMAG   =     F  perturbation theory with respect to B field
   DQ        =  0.001000  dq finite difference perturbation B field
   LLRAUG    =     F  two centre corrections for induced B field



--------------------------------------------------------------------------------------------------------


 conjugate gradient relaxation of ions
 charge density and potential will be updated during run
 non-spin polarized calculation
 RMM-DIIS sequential band-by-band and
  variant of blocked Davidson during initial phase
 perform sub-space diagonalisation
    before iterative eigenvector-optimisation
 modified Broyden-mixing scheme, WC =      100.0
 initial mixing is a Kerker type mixing with AMIX =  0.4000 and BMIX =      1.0000
 Hartree-type preconditioning will be used
 using additional bands           10
 real space projection scheme for non local part
 use partial core corrections
 calculate Harris-corrections to forces 
   (improved forces if not selfconsistent)
 use of overlap-Matrix (Vanderbilt PP)
 Fermi weights with tetrahedron method with Bloechl corrections


--------------------------------------------------------------------------------------------------------


  energy-cutoff  :      420.00
  volume of cell :      261.86
      direct lattice vectors                 reciprocal lattice vectors
    12.609369451 -2.771132670 -0.525636952     0.091616830  0.057110440 -0.005764728
    -2.959016872  4.882531903  1.344000944     0.053479603  0.256917463 -0.071548062
    -0.682171039  1.635774010  5.363900325    -0.004422052 -0.058777743  0.203793964

  length of vectors
    12.920977844  5.865256786  5.649118572     0.108113264  0.272003264  0.212147018


 
 k-points in units of 2pi/SCALE and weight: Automatic mesh                          
   0.00000000  0.00000000  0.00000000       0.016
   0.02290421  0.01427761 -0.00144118       0.031
   0.04580841  0.02855522 -0.00288236       0.016
   0.01336990  0.06422937 -0.01788702       0.031
   0.03627411  0.07850698 -0.01932820       0.031
   0.05917832  0.09278459 -0.02076938       0.031
  -0.00953431  0.04995176 -0.01644583       0.031
   0.02673980  0.12845873 -0.03577403       0.016
   0.04964401  0.14273634 -0.03721521       0.031
   0.07254822  0.15701395 -0.03865639       0.016
  -0.00110551 -0.01469444  0.05094849       0.031
   0.02179869 -0.00041683  0.04950731       0.031
   0.04470290  0.01386078  0.04806613       0.031
  -0.02400972 -0.02897205  0.05238967       0.031
   0.01226439  0.04953493  0.03306148       0.031
   0.03516860  0.06381254  0.03162029       0.031
   0.05807280  0.07809015  0.03017911       0.031
  -0.01063982  0.03525732  0.03450266       0.031
   0.02563429  0.11376430  0.01517446       0.031
   0.04853850  0.12804191  0.01373328       0.031
   0.07144270  0.14231952  0.01229210       0.031
   0.00273008  0.09948669  0.01661564       0.031
  -0.01447541 -0.07892380  0.06883551       0.031
   0.00842879 -0.06464619  0.06739432       0.031
   0.03133300 -0.05036858  0.06595314       0.031
  -0.03737962 -0.09320141  0.07027669       0.031
  -0.00221103 -0.02938887  0.10189698       0.016
   0.02069318 -0.01511126  0.10045580       0.031
   0.04359739 -0.00083365  0.09901462       0.016
   0.01115887  0.03484049  0.08400997       0.031
   0.03406308  0.04911810  0.08256878       0.031
   0.05696729  0.06339571  0.08112760       0.031
  -0.01174533  0.02056288  0.08545115       0.031
   0.02452878  0.09906986  0.06612295       0.016
   0.04743298  0.11334747  0.06468177       0.031
   0.07033719  0.12762508  0.06324059       0.016
 
 k-points in reciprocal lattice and weights: Automatic mesh                          
   0.00000000  0.00000000  0.00000000       0.016
   0.25000000 -0.00000000 -0.00000000       0.031
   0.50000000 -0.00000000 -0.00000000       0.016
   0.00000000  0.25000000  0.00000000       0.031
   0.25000000  0.25000000  0.00000000       0.031
   0.50000000  0.25000000  0.00000000       0.031
  -0.25000000  0.25000000  0.00000000       0.031
   0.00000000  0.50000000  0.00000000       0.016
   0.25000000  0.50000000  0.00000000       0.031
   0.50000000  0.50000000  0.00000000       0.016
  -0.00000000  0.00000000  0.25000000       0.031
   0.25000000  0.00000000  0.25000000       0.031
   0.50000000  0.00000000  0.25000000       0.031
  -0.25000000  0.00000000  0.25000000       0.031
   0.00000000  0.25000000  0.25000000       0.031
   0.25000000  0.25000000  0.25000000       0.031
   0.50000000  0.25000000  0.25000000       0.031
  -0.25000000  0.25000000  0.25000000       0.031
  -0.00000000  0.50000000  0.25000000       0.031
   0.25000000  0.50000000  0.25000000       0.031
   0.50000000  0.50000000  0.25000000       0.031
  -0.25000000  0.50000000  0.25000000       0.031
  -0.00000000 -0.25000000  0.25000000       0.031
   0.25000000 -0.25000000  0.25000000       0.031
   0.50000000 -0.25000000  0.25000000       0.031
  -0.25000000 -0.25000000  0.25000000       0.031
  -0.00000000  0.00000000  0.50000000       0.016
   0.25000000  0.00000000  0.50000000       0.031
   0.50000000  0.00000000  0.50000000       0.016
   0.00000000  0.25000000  0.50000000       0.031
   0.25000000  0.25000000  0.50000000       0.031
   0.50000000  0.25000000  0.50000000       0.031
  -0.25000000  0.25000000  0.50000000       0.031
   0.00000000  0.50000000  0.50000000       0.016
   0.25000000  0.50000000  0.50000000       0.031
   0.50000000  0.50000000  0.50000000       0.016
 
 position of ions in fractional coordinates (direct lattice) 
   0.21231104  0.97598768  0.89582129
   0.71201766  0.12781317  0.39697003
   0.17242955  0.27586192  0.57170256
   0.39018480  0.10005858  0.77568902
   0.03619808  0.44519375  0.01623809
   0.25051768  0.07361878  0.21755324
   0.75103579  0.82502376  0.71929911
   0.53546843  0.00841694  0.51765584
   0.67263098  0.03213948  0.07345668
   0.88933145  0.65774485  0.27607961
   0.51043686  0.42548855  0.03226389
   0.41365485  0.69280573  0.25461073
   0.21490003  0.47708572  0.88825768
   0.91351647  0.65795705  0.75761397
   0.01048861  0.43957526  0.53337091
   0.71295868  0.63714606  0.39426051
 
 position of ions in cartesian coordinates  (Angst):
  -0.82195897  5.64231010  6.00522593
   8.32909099 -0.69969026  1.92682592
   0.96794890  1.80425566  3.34667890
   4.09475672  0.67613730  4.09010187
  -0.87197803  2.09992485  0.66641327
   2.79262223  0.02109627  1.13419624
   6.53814355  3.12359580  4.57230928
   6.37388361 -0.59599010  2.50650472
   8.33624122 -1.58686912  0.08365009
   9.07929725  1.19860860  1.89740772
   5.15524966  0.71574959  0.47661283
   2.99221486  2.65283924  2.07940587
   0.69210548  3.18685860  5.29276992
   9.05513840  1.92030619  4.46788270
  -1.53230605  2.98964919  3.44622479
   6.83568037  1.78010398  2.59634157
 


--------------------------------------------------------------------------------------------------------


 k-point  1 :   0.0000 0.0000 0.0000  plane waves:    5147
 k-point  2 :   0.2500-0.0000-0.0000  plane waves:    5134
 k-point  3 :   0.5000-0.0000-0.0000  plane waves:    5122
 k-point  4 :   0.0000 0.2500 0.0000  plane waves:    5133
 k-point  5 :   0.2500 0.2500 0.0000  plane waves:    5118
 k-point  6 :   0.5000 0.2500 0.0000  plane waves:    5120
 k-point  7 :  -0.2500 0.2500 0.0000  plane waves:    5136
 k-point  8 :   0.0000 0.5000 0.0000  plane waves:    5130
 k-point  9 :   0.2500 0.5000 0.0000  plane waves:    5125
 k-point 10 :   0.5000 0.5000 0.0000  plane waves:    5124
 k-point 11 :  -0.0000 0.0000 0.2500  plane waves:    5126
 k-point 12 :   0.2500 0.0000 0.2500  plane waves:    5115
 k-point 13 :   0.5000 0.0000 0.2500  plane waves:    5114
 k-point 14 :  -0.2500 0.0000 0.2500  plane waves:    5128
 k-point 15 :   0.0000 0.2500 0.2500  plane waves:    5120
 k-point 16 :   0.2500 0.2500 0.2500  plane waves:    5129
 k-point 17 :   0.5000 0.2500 0.2500  plane waves:    5134
 k-point 18 :  -0.2500 0.2500 0.2500  plane waves:    5119
 k-point 19 :  -0.0000 0.5000 0.2500  plane waves:    5124
 k-point 20 :   0.2500 0.5000 0.2500  plane waves:    5125
 k-point 21 :   0.5000 0.5000 0.2500  plane waves:    5125
 k-point 22 :  -0.2500 0.5000 0.2500  plane waves:    5129
 k-point 23 :  -0.0000-0.2500 0.2500  plane waves:    5109
 k-point 24 :   0.2500-0.2500 0.2500  plane waves:    5112
 k-point 25 :   0.5000-0.2500 0.2500  plane waves:    5109
 k-point 26 :  -0.2500-0.2500 0.2500  plane waves:    5106
 k-point 27 :  -0.0000 0.0000 0.5000  plane waves:    5108
 k-point 28 :   0.2500 0.0000 0.5000  plane waves:    5103
 k-point 29 :   0.5000 0.0000 0.5000  plane waves:    5098
 k-point 30 :   0.0000 0.2500 0.5000  plane waves:    5104
 k-point 31 :   0.2500 0.2500 0.5000  plane waves:    5107
 k-point 32 :   0.5000 0.2500 0.5000  plane waves:    5115
 k-point 33 :  -0.2500 0.2500 0.5000  plane waves:    5110
 k-point 34 :   0.0000 0.5000 0.5000  plane waves:    5124
 k-point 35 :   0.2500 0.5000 0.5000  plane waves:    5123
 k-point 36 :   0.5000 0.5000 0.5000  plane waves:    5134

 maximum and minimum number of plane-waves per node :       347      295

 maximum number of plane-waves:      5147
 maximum index in each direction: 
   IXMAX=   21   IYMAX=   10   IZMAX=    9
   IXMIN=  -22   IYMIN=  -10   IZMIN=   -9


 real space projection operators:
  total allocation   :       4633.87 KBytes
  max/ min on nodes  :        323.38        252.68


 parallel 3D FFT for wavefunctions:
    minimum data exchange during FFTs selected (reduces bandwidth)
 parallel 3D FFT for charge:
    minimum data exchange during FFTs selected (reduces bandwidth)


 total amount of memory used by VASP MPI-rank0    36994. kBytes
=======================================================================

   base      :      30000. kBytes
   nonlr-proj:       2043. kBytes
   fftplans  :        959. kBytes
   grid      :       1639. kBytes
   one-center:          3. kBytes
   wavefun   :       2350. kBytes
 
     INWAV:  cpu time    0.0000: real time    0.0003
 Broyden mixing: mesh for mixing (old mesh)
   NGX = 43   NGY = 19   NGZ = 19
  (NGX  =180   NGY  = 80   NGZ  = 80)
  gives a total of  15523 points

 initial charge density was supplied:
 charge density of overlapping atoms calculated
 number of electron      76.0000000 magnetization 
 keeping initial charge density in first step


--------------------------------------------------------------------------------------------------------


 Maximum index for non-local projection operator          491
 Maximum index for augmentation-charges          656 (set IRDMAX)


--------------------------------------------------------------------------------------------------------


 First call to EWALD:  gamma=   0.277
 Maximum number of real-space cells 2x 4x 4
 Maximum number of reciprocal cells 5x 3x 2

    FEWALD:  cpu time    0.0056: real time    0.0058


--------------------------------------- Iteration      1(   1)  ---------------------------------------


    POTLOK:  cpu time    0.0082: real time    0.0240
    SETDIJ:  cpu time    0.0137: real time    0.0167
     EDDAV:  cpu time    0.9759: real time    1.0092
 BZINTS: Fermi energy: 16.010857; 76.000000 electrons
         Band energy: -51.663694;  BLOECHL correction: -0.131752
       DOS:  cpu time    0.0156: real time    0.0171
    --------------------------------------------
      LOOP:  cpu time    1.0134: real time    1.0670

 eigenvalue-minimisations  :  3456
 total energy-change (2. order) : 0.4933762E+03  (-0.2874187E+04)
 number of electron      76.0000000 magnetization 
 augmentation part       76.0000000 magnetization 

 Free energy of the ion-electron system (eV)
  ---------------------------------------------------
  alpha Z        PSCENC =        75.35643131
  Ewald energy   TEWEN  =     -2905.26736577
  -Hartree energ DENC   =      -530.14783255
  -exchange      EXHF   =         0.00000000
  -V(xc)+E(xc)   XCENC  =       182.90859415
  PAW double counting   =      2494.22442938    -2541.12215007
  entropy T*S    EENTRO =         0.00000000
  eigenvalues    EBANDS =       -51.66369447
  atomic energy  EATOM  =      3769.08782378
  Solvation  Ediel_sol  =         0.00000000
  ---------------------------------------------------
  free energy    TOTEN  =       493.37623576 eV

  energy without entropy =      493.37623576  energy(sigma->0) =      493.37623576


--------------------------------------------------------------------------------------------------------




--------------------------------------- Iteration      1(   2)  ---------------------------------------


     EDDAV:  cpu time    1.0532: real time    1.0583
 BZINTS: Fermi energy:  7.390523; 76.000000 electrons
         Band energy:-557.034949;  BLOECHL correction:  0.000000
       DOS:  cpu time    0.0041: real time    0.0041
    --------------------------------------------
      LOOP:  cpu time    1.0573: real time    1.0624

 eigenvalue-minimisations  :  4064
 total energy-change (2. order) :-0.5053713E+03  (-0.4807076E+03)
 number of electron      76.0000000 magnetization 
 augmentation part       76.0000000 magnetization 

 Free energy of the ion-electron system (eV)
  ---------------------------------------------------
  alpha Z        PSCENC =        75.35643131
  Ewald energy   TEWEN  =     -2905.26736577
  -Hartree energ DENC   =      -530.14783255
  -exchange      EXHF   =         0.00000000
  -V(xc)+E(xc)   XCENC  =       182.90859415
  PAW double counting   =      2494.22442938    -2541.12215007
  entropy T*S    EENTRO =         0.00000000
  eigenvalues    EBANDS =      -557.03494870
  atomic energy  EATOM  =      3769.08782378
  Solvation  Ediel_sol  =         0.00000000
  ---------------------------------------------------
  free energy    TOTEN  =       -11.99501848 eV

  energy without entropy =      -11.99501848  energy(sigma->0) =      -11.99501848


--------------------------------------------------------------------------------------------------------




--------------------------------------- Iteration      1(   3)  ---------------------------------------


     EDDAV:  cpu time    1.1599: real time    1.1610
 BZINTS: Fermi energy:  3.249906; 76.000000 electrons
         Band energy:-617.610892;  BLOECHL correction:  0.000000
       DOS:  cpu time    0.0024: real time    0.0024
    --------------------------------------------
      LOOP:  cpu time    1.1623: real time    1.1634

 eigenvalue-minimisations  :  4784
 total energy-change (2. order) :-0.6057594E+02  (-0.6002271E+02)
 number of electron      76.0000000 magnetization 
 augmentation part       76.0000000 magnetization 

 Free energy of the ion-electron system (eV)
  ---------------------------------------------------
  alpha Z        PSCENC =        75.35643131
  Ewald energy   TEWEN  =     -2905.26736577
  -Hartree energ DENC   =      -530.14783255
  -exchange      EXHF   =         0.00000000
  -V(xc)+E(xc)   XCENC  =       182.90859415
  PAW double counting   =      2494.22442938    -2541.12215007
  entropy T*S    EENTRO =         0.00000000
  eigenvalues    EBANDS =      -617.61089232
  atomic energy  EATOM  =      3769.08782378
  Solvation  Ediel_sol  =         0.00000000
  ---------------------------------------------------
  free energy    TOTEN  =       -72.57096210 eV

  energy without entropy =      -72.57096210  energy(sigma->0) =      -72.57096210


--------------------------------------------------------------------------------------------------------




--------------------------------------- Iteration      1(   4)  ---------------------------------------


     EDDAV:  cpu time    1.4260: real time    1.4265
 BZINTS: Fermi energy:  3.137701; 76.000000 electrons
         Band energy:-623.559640;  BLOECHL correction:  0.000000
       DOS:  cpu time    0.0024: real time    0.0024
    --------------------------------------------
      LOOP:  cpu time    1.4284: real time    1.4289

 eigenvalue-minimisations  :  6232
 total energy-change (2. order) :-0.5948748E+01  (-0.5924088E+01)
 number of electron      76.0000000 magnetization 
 augmentation part       76.0000000 magnetization 

 Free energy of the ion-electron system (eV)
  ---------------------------------------------------
  alpha Z        PSCENC =        75.35643131
  Ewald energy   TEWEN  =     -2905.26736577
  -Hartree energ DENC   =      -530.14783255
  -exchange      EXHF   =         0.00000000
  -V(xc)+E(xc)   XCENC  =       182.90859415
  PAW double counting   =      2494.22442938    -2541.12215007
  entropy T*S    EENTRO =         0.00000000
  eigenvalues    EBANDS =      -623.55964036
  atomic energy  EATOM  =      3769.08782378
  Solvation  Ediel_sol  =         0.00000000
  ---------------------------------------------------
  free energy    TOTEN  =       -78.51971014 eV

  energy without entropy =      -78.51971014  energy(sigma->0) =      -78.51971014


--------------------------------------------------------------------------------------------------------




--------------------------------------- Iteration      1(   5)  ---------------------------------------


     EDDAV:  cpu time    1.2190: real time    1.2196
 BZINTS: Fermi energy:  3.165056; 76.000000 electrons
         Band energy:-624.154931;  BLOECHL correction:  0.000000
       DOS:  cpu time    0.0024: real time    0.0024
    CHARGE:  cpu time    0.0426: real time    0.0426
    MIXING:  cpu time    0.0021: real time    0.0032
    --------------------------------------------
      LOOP:  cpu time    1.2661: real time    1.2678

 eigenvalue-minimisations  :  5120
 total energy-change (2. order) :-0.5952905E+00  (-0.5951528E+00)
 number of electron      76.0000003 magnetization 
 augmentation part       -1.7162627 magnetization 

 Broyden mixing:
  rms(total) = 0.24726E+01    rms(broyden)= 0.24720E+01
  rms(prec ) = 0.25840E+01
  weight for this iteration     100.00

 Free energy of the ion-electron system (eV)
  ---------------------------------------------------
  alpha Z        PSCENC =        75.35643131
  Ewald energy   TEWEN  =     -2905.26736577
  -Hartree energ DENC   =      -530.14783255
  -exchange      EXHF   =         0.00000000
  -V(xc)+E(xc)   XCENC  =       182.90859415
  PAW double counting   =      2494.22442938    -2541.12215007
  entropy T*S    EENTRO =         0.00000000
  eigenvalues    EBANDS =      -624.15493086
  atomic energy  EATOM  =      3769.08782378
  Solvation  Ediel_sol  =         0.00000000
  ---------------------------------------------------
  free energy    TOTEN  =       -79.11500064 eV

  energy without entropy =      -79.11500064  energy(sigma->0) =      -79.11500064


--------------------------------------------------------------------------------------------------------




--------------------------------------- Iteration      1(   6)  ---------------------------------------


    POTLOK:  cpu time    0.0053: real time    0.0056
    SETDIJ:  cpu time    0.0018: real time    0.0018
    EDDIAG:  cpu time    0.2453: real time    0.2469
  RMM-DIIS:  cpu time    0.4913: real time    0.4918
    ORTHCH:  cpu time    0.0306: real time    0.0306
 BZINTS: Fermi energy:  3.560502; 76.000000 electrons
         Band energy:-611.407197;  BLOECHL correction:  0.000000
       DOS:  cpu time    0.0025: real time    0.0025
    CHARGE:  cpu time    0.0419: real time    0.0419
    MIXING:  cpu time    0.0010: real time    0.0091
    --------------------------------------------
      LOOP:  cpu time    0.8196: real time    0.8301

 eigenvalue-minimisations  :  3689
 total energy-change (2. order) : 0.1612742E+01  (-0.4181407E+00)
 number of electron      76.0000003 magnetization 
 augmentation part       -1.6676572 magnetization 

 Broyden mixing:
  rms(total) = 0.15604E+01    rms(broyden)= 0.15604E+01
  rms(prec ) = 0.15960E+01
  weight for this iteration     100.00

 eigenvalues of (default mixing * dielectric matrix)
  average eigenvalue GAMMA=   2.5039
  2.5039

 Free energy of the ion-electron system (eV)
  ---------------------------------------------------
  alpha Z        PSCENC =        75.35643131
  Ewald energy   TEWEN  =     -2905.26736577
  -Hartree energ DENC   =      -540.89388320
  -exchange      EXHF   =         0.00000000
  -V(xc)+E(xc)   XCENC  =       184.23135257
  PAW double counting   =      4047.38013013    -4095.98954988
  entropy T*S    EENTRO =         0.00000000
  eigenvalues    EBANDS =      -611.40719720
  atomic energy  EATOM  =      3769.08782378
  Solvation  Ediel_sol  =         0.00000000
  ---------------------------------------------------
  free energy    TOTEN  =       -77.50225825 eV

  energy without entropy =      -77.50225825  energy(sigma->0) =      -77.50225825


--------------------------------------------------------------------------------------------------------




--------------------------------------- Iteration      1(   7)  ---------------------------------------


    POTLOK:  cpu time    0.0049: real time    0.0052
    SETDIJ:  cpu time    0.0018: real time    0.0018
    EDDIAG:  cpu time    0.2442: real time    0.2443
  RMM-DIIS:  cpu time    0.5211: real time    0.5211
    ORTHCH:  cpu time    0.0307: real time    0.0307
 BZINTS: Fermi energy:  3.794353; 76.000000 electrons
         Band energy:-599.532903;  BLOECHL correction:  0.000000
       DOS:  cpu time    0.0024: real time    0.0024
    CHARGE:  cpu time    0.0420: real time    0.0420
    MIXING:  cpu time    0.0009: real time    0.0009
    --------------------------------------------
      LOOP:  cpu time    0.8481: real time    0.8484

 eigenvalue-minimisations  :  3837
 total energy-change (2. order) : 0.3036485E+00  (-0.2847163E+00)
 number of electron      76.0000003 magnetization 
 augmentation part       -1.6345351 magnetization 

 Broyden mixing:
  rms(total) = 0.24880E+00    rms(broyden)= 0.24880E+00
  rms(prec ) = 0.27613E+00
  weight for this iteration     100.00

 eigenvalues of (default mixing * dielectric matrix)
  average eigenvalue GAMMA=   1.9618
  1.5241  2.3995

 Free energy of the ion-electron system (eV)
  ---------------------------------------------------
  alpha Z        PSCENC =        75.35643131
  Ewald energy   TEWEN  =     -2905.26736577
  -Hartree energ DENC   =      -552.04968211
  -exchange      EXHF   =         0.00000000
  -V(xc)+E(xc)   XCENC  =       185.73847501
  PAW double counting   =      7314.85239283    -7365.38378223
  entropy T*S    EENTRO =         0.00000000
  eigenvalues    EBANDS =      -599.53290261
  atomic energy  EATOM  =      3769.08782378
  Solvation  Ediel_sol  =         0.00000000
  ---------------------------------------------------
  free energy    TOTEN  =       -77.19860978 eV

  energy without entropy =      -77.19860978  energy(sigma->0) =      -77.19860978


--------------------------------------------------------------------------------------------------------




--------------------------------------- Iteration      1(   8)  ---------------------------------------


    POTLOK:  cpu time    0.0048: real time    0.0052
    SETDIJ:  cpu time    0.0018: real time    0.0018
    EDDIAG:  cpu time    0.2469: real time    0.2469
  RMM-DIIS:  cpu time    0.5601: real time    0.5601
    ORTHCH:  cpu time    0.0303: real time    0.0303
 BZINTS: Fermi energy:  3.647336; 76.000000 electrons
         Band energy:-602.406733;  BLOECHL correction:  0.000000
       DOS:  cpu time    0.0021: real time    0.0021
    CHARGE:  cpu time    0.0416: real time    0.0416
    MIXING:  cpu time    0.0010: real time    0.0010
    --------------------------------------------
      LOOP:  cpu time    0.8886: real time    0.8889

 eigenvalue-minimisations  :  4174
 total energy-change (2. order) : 0.9790899E-01  (-0.1910158E-01)
 number of electron      76.0000003 magnetization 
 augmentation part       -1.6752097 magnetization 

 Broyden mixing:
  rms(total) = 0.63780E-01    rms(broyden)= 0.63754E-01
  rms(prec ) = 0.71641E-01
  weight for this iteration     100.00

 eigenvalues of (default mixing * dielectric matrix)
  average eigenvalue GAMMA=   1.6717
  0.8857  2.2396  1.8898

 Free energy of the ion-electron system (eV)
  ---------------------------------------------------
  alpha Z        PSCENC =        75.35643131
  Ewald energy   TEWEN  =     -2905.26736577
  -Hartree energ DENC   =      -548.94096630
  -exchange      EXHF   =         0.00000000
  -V(xc)+E(xc)   XCENC  =       185.51988424
  PAW double counting   =      7571.72063341    -7622.17040848
  entropy T*S    EENTRO =         0.00000000
  eigenvalues    EBANDS =      -602.40673299
  atomic energy  EATOM  =      3769.08782378
  Solvation  Ediel_sol  =         0.00000000
  ---------------------------------------------------
  free energy    TOTEN  =       -77.10070080 eV

  energy without entropy =      -77.10070080  energy(sigma->0) =      -77.10070080


--------------------------------------------------------------------------------------------------------




--------------------------------------- Iteration      1(   9)  ---------------------------------------


    POTLOK:  cpu time    0.0049: real time    0.0053
    SETDIJ:  cpu time    0.0018: real time    0.0018
    EDDIAG:  cpu time    0.2482: real time    0.2482
  RMM-DIIS:  cpu time    0.5544: real time    0.5544
    ORTHCH:  cpu time    0.0304: real time    0.0304
 BZINTS: Fermi energy:  3.646061; 76.000000 electrons
         Band energy:-603.391896;  BLOECHL correction:  0.000000
       DOS:  cpu time    0.0021: real time    0.0021
    CHARGE:  cpu time    0.0418: real time    0.0418
    MIXING:  cpu time    0.0010: real time    0.0010
    --------------------------------------------
      LOOP:  cpu time    0.8846: real time    0.8850

 eigenvalue-minimisations  :  4181
 total energy-change (2. order) : 0.6087671E-02  (-0.4059982E-02)
 number of electron      76.0000003 magnetization 
 augmentation part       -1.6892001 magnetization 

 Broyden mixing:
  rms(total) = 0.24297E-01    rms(broyden)= 0.24281E-01
  rms(prec ) = 0.26571E-01
  weight for this iteration     100.00

 eigenvalues of (default mixing * dielectric matrix)
  average eigenvalue GAMMA=   1.7537
  2.3188  1.1372  1.7795  1.7795

 Free energy of the ion-electron system (eV)
  ---------------------------------------------------
  alpha Z        PSCENC =        75.35643131
  Ewald energy   TEWEN  =     -2905.26736577
  -Hartree energ DENC   =      -547.87375536
  -exchange      EXHF   =         0.00000000
  -V(xc)+E(xc)   XCENC  =       185.45622713
  PAW double counting   =      7505.49313845    -7555.95521651
  entropy T*S    EENTRO =         0.00000000
  eigenvalues    EBANDS =      -603.39189615
  atomic energy  EATOM  =      3769.08782378
  Solvation  Ediel_sol  =         0.00000000
  ---------------------------------------------------
  free energy    TOTEN  =       -77.09461313 eV

  energy without entropy =      -77.09461313  energy(sigma->0) =      -77.09461313


--------------------------------------------------------------------------------------------------------




--------------------------------------- Iteration      1(  10)  ---------------------------------------


    POTLOK:  cpu time    0.0052: real time    0.0055
    SETDIJ:  cpu time    0.0017: real time    0.0017
    EDDIAG:  cpu time    0.2466: real time    0.2467
  RMM-DIIS:  cpu time    0.6446: real time    0.6446
    ORTHCH:  cpu time    0.0304: real time    0.0304
 BZINTS: Fermi energy:  3.646781; 76.000000 electrons
         Band energy:-602.763222;  BLOECHL correction:  0.000000
       DOS:  cpu time    0.0020: real time    0.0020
    CHARGE:  cpu time    0.0423: real time    0.0423
    MIXING:  cpu time    0.0008: real time    0.0008
    --------------------------------------------
      LOOP:  cpu time    0.9737: real time    0.9741

 eigenvalue-minimisations  :  4740
 total energy-change (2. order) : 0.4773049E-04  (-0.1115383E-02)
 number of electron      76.0000003 magnetization 
 augmentation part       -1.6903463 magnetization 

 Broyden mixing:
  rms(total) = 0.18715E-01    rms(broyden)= 0.18703E-01
  rms(prec ) = 0.20296E-01
  weight for this iteration     100.00

 eigenvalues of (default mixing * dielectric matrix)
  average eigenvalue GAMMA=   1.7375
  2.2750  2.2750  1.9298  1.3580  0.8494

 Free energy of the ion-electron system (eV)
  ---------------------------------------------------
  alpha Z        PSCENC =        75.35643131
  Ewald energy   TEWEN  =     -2905.26736577
  -Hartree energ DENC   =      -548.51228213
  -exchange      EXHF   =         0.00000000
  -V(xc)+E(xc)   XCENC  =       185.51288906
  PAW double counting   =      7478.61897559    -7529.12781537
  entropy T*S    EENTRO =         0.00000000
  eigenvalues    EBANDS =      -602.76322187
  atomic energy  EATOM  =      3769.08782378
  Solvation  Ediel_sol  =         0.00000000
  ---------------------------------------------------
  free energy    TOTEN  =       -77.09456540 eV

  energy without entropy =      -77.09456540  energy(sigma->0) =      -77.09456540


--------------------------------------------------------------------------------------------------------




--------------------------------------- Iteration      1(  11)  ---------------------------------------


    POTLOK:  cpu time    0.0047: real time    0.0050
    SETDIJ:  cpu time    0.0017: real time    0.0017
    EDDIAG:  cpu time    0.2471: real time    0.2471
  RMM-DIIS:  cpu time    0.6487: real time    0.6488
    ORTHCH:  cpu time    0.0307: real time    0.0307
 BZINTS: Fermi energy:  3.645773; 76.000000 electrons
         Band energy:-602.813537;  BLOECHL correction:  0.000000
       DOS:  cpu time    0.0020: real time    0.0020
    CHARGE:  cpu time    0.0418: real time    0.0419
    MIXING:  cpu time    0.0009: real time    0.0009
    --------------------------------------------
      LOOP:  cpu time    0.9777: real time    0.9780

 eigenvalue-minimisations  :  4742
 total energy-change (2. order) :-0.5082062E-04  (-0.3938660E-03)
 number of electron      76.0000003 magnetization 
 augmentation part       -1.6942417 magnetization 

 Broyden mixing:
  rms(total) = 0.59235E-02    rms(broyden)= 0.59062E-02
  rms(prec ) = 0.62573E-02
  weight for this iteration     100.00

 eigenvalues of (default mixing * dielectric matrix)
  average eigenvalue GAMMA=   1.6608
  2.3890  2.1070  2.1070  1.1718  1.0951  1.0951

 Free energy of the ion-electron system (eV)
  ---------------------------------------------------
  alpha Z        PSCENC =        75.35643131
  Ewald energy   TEWEN  =     -2905.26736577
  -Hartree energ DENC   =      -548.45667281
  -exchange      EXHF   =         0.00000000
  -V(xc)+E(xc)   XCENC  =       185.51119000
  PAW double counting   =      7459.78445560    -7510.29694145
  entropy T*S    EENTRO =         0.00000000
  eigenvalues    EBANDS =      -602.81353688
  atomic energy  EATOM  =      3769.08782378
  Solvation  Ediel_sol  =         0.00000000
  ---------------------------------------------------
  free energy    TOTEN  =       -77.09461622 eV

  energy without entropy =      -77.09461622  energy(sigma->0) =      -77.09461622


--------------------------------------------------------------------------------------------------------




--------------------------------------- Iteration      1(  12)  ---------------------------------------


    POTLOK:  cpu time    0.0051: real time    0.0054
    SETDIJ:  cpu time    0.0017: real time    0.0017
    EDDIAG:  cpu time    0.2434: real time    0.2434
  RMM-DIIS:  cpu time    0.6312: real time    0.6314
    ORTHCH:  cpu time    0.0310: real time    0.0310
 BZINTS: Fermi energy:  3.644052; 76.000000 electrons
         Band energy:-602.821903;  BLOECHL correction:  0.000000
       DOS:  cpu time    0.0020: real time    0.0020
    CHARGE:  cpu time    0.0421: real time    0.0421
    MIXING:  cpu time    0.0011: real time    0.0011
    --------------------------------------------
      LOOP:  cpu time    0.9574: real time    0.9579

 eigenvalue-minimisations  :  4503
 total energy-change (2. order) :-0.1721456E-03  (-0.1940556E-03)
 number of electron      76.0000003 magnetization 
 augmentation part       -1.6965413 magnetization 

 Broyden mixing:
  rms(total) = 0.26735E-02    rms(broyden)= 0.26511E-02
  rms(prec ) = 0.29309E-02
  weight for this iteration     100.00

 eigenvalues of (default mixing * dielectric matrix)
  average eigenvalue GAMMA=   1.6670
  2.4538  2.3419  2.3419  1.4436  1.4436  0.9777  0.6664

 Free energy of the ion-electron system (eV)
  ---------------------------------------------------
  alpha Z        PSCENC =        75.35643131
  Ewald energy   TEWEN  =     -2905.26736577
  -Hartree energ DENC   =      -548.45685186
  -exchange      EXHF   =         0.00000000
  -V(xc)+E(xc)   XCENC  =       185.51385418
  PAW double counting   =      7468.14043645    -7518.64721349
  entropy T*S    EENTRO =         0.00000000
  eigenvalues    EBANDS =      -602.82190295
  atomic energy  EATOM  =      3769.08782378
  Solvation  Ediel_sol  =         0.00000000
  ---------------------------------------------------
  free energy    TOTEN  =       -77.09478836 eV

  energy without entropy =      -77.09478836  energy(sigma->0) =      -77.09478836


--------------------------------------------------------------------------------------------------------




--------------------------------------- Iteration      1(  13)  ---------------------------------------


    POTLOK:  cpu time    0.0048: real time    0.0051
    SETDIJ:  cpu time    0.0017: real time    0.0017
    EDDIAG:  cpu time    0.2445: real time    0.2446
  RMM-DIIS:  cpu time    0.4123: real time    0.4123
    ORTHCH:  cpu time    0.0303: real time    0.0303
 BZINTS: Fermi energy:  3.642385; 76.000000 electrons
         Band energy:-602.827798;  BLOECHL correction:  0.000000
       DOS:  cpu time    0.0020: real time    0.0020
    CHARGE:  cpu time    0.0418: real time    0.0418
    MIXING:  cpu time    0.0011: real time    0.0011
    --------------------------------------------
      LOOP:  cpu time    0.7385: real time    0.7389

 eigenvalue-minimisations  :  3145
 total energy-change (2. order) :-0.5923860E-04  (-0.6524532E-04)
 number of electron      76.0000003 magnetization 
 augmentation part       -1.6974517 magnetization 

 Broyden mixing:
  rms(total) = 0.19008E-02    rms(broyden)= 0.18921E-02
  rms(prec ) = 0.21158E-02
  weight for this iteration     100.00

 eigenvalues of (default mixing * dielectric matrix)
  average eigenvalue GAMMA=   1.8692
  4.1101  2.4400  2.2483  1.7602  1.4890  1.1788  0.9260  0.8014

 Free energy of the ion-electron system (eV)
  ---------------------------------------------------
  alpha Z        PSCENC =        75.35643131
  Ewald energy   TEWEN  =     -2905.26736577
  -Hartree energ DENC   =      -548.46565587
  -exchange      EXHF   =         0.00000000
  -V(xc)+E(xc)   XCENC  =       185.51557000
  PAW double counting   =      7468.15463478    -7518.64848784
  entropy T*S    EENTRO =         0.00000000
  eigenvalues    EBANDS =      -602.82779800
  atomic energy  EATOM  =      3769.08782378
  Solvation  Ediel_sol  =         0.00000000
  ---------------------------------------------------
  free energy    TOTEN  =       -77.09484760 eV

  energy without entropy =      -77.09484760  energy(sigma->0) =      -77.09484760


--------------------------------------------------------------------------------------------------------




--------------------------------------- Iteration      1(  14)  ---------------------------------------


    POTLOK:  cpu time    0.0053: real time    0.0057
    SETDIJ:  cpu time    0.0021: real time    0.0021
    EDDIAG:  cpu time    0.2463: real time    0.2463
  RMM-DIIS:  cpu time    0.5296: real time    0.5297
    ORTHCH:  cpu time    0.0308: real time    0.0308
 BZINTS: Fermi energy:  3.641068; 76.000000 electrons
         Band energy:-602.844638;  BLOECHL correction:  0.000000
       DOS:  cpu time    0.0021: real time    0.0021
    CHARGE:  cpu time    0.0418: real time    0.0418
    MIXING:  cpu time    0.0012: real time    0.0012
    --------------------------------------------
      LOOP:  cpu time    0.8592: real time    0.8596

 eigenvalue-minimisations  :  3914
 total energy-change (2. order) :-0.2857299E-04  (-0.3516052E-04)
 number of electron      76.0000003 magnetization 
 augmentation part       -1.6981680 magnetization 

 Broyden mixing:
  rms(total) = 0.75004E-03    rms(broyden)= 0.74620E-03
  rms(prec ) = 0.89532E-03
  weight for this iteration     100.00

 eigenvalues of (default mixing * dielectric matrix)
  average eigenvalue GAMMA=   1.6579
  2.9412  2.5079  2.0040  2.0040  1.5117  1.5117  0.9369  0.8393  0.6646

 Free energy of the ion-electron system (eV)
  ---------------------------------------------------
  alpha Z        PSCENC =        75.35643131
  Ewald energy   TEWEN  =     -2905.26736577
  -Hartree energ DENC   =      -548.47126454
  -exchange      EXHF   =         0.00000000
  -V(xc)+E(xc)   XCENC  =       185.51777396
  PAW double counting   =      7464.95884159    -7515.43247848
  entropy T*S    EENTRO =         0.00000000
  eigenvalues    EBANDS =      -602.84463803
  atomic energy  EATOM  =      3769.08782378
  Solvation  Ediel_sol  =         0.00000000
  ---------------------------------------------------
  free energy    TOTEN  =       -77.09487617 eV

  energy without entropy =      -77.09487617  energy(sigma->0) =      -77.09487617


--------------------------------------------------------------------------------------------------------




--------------------------------------- Iteration      1(  15)  ---------------------------------------


    POTLOK:  cpu time    0.0049: real time    0.0052
    SETDIJ:  cpu time    0.0017: real time    0.0017
    EDDIAG:  cpu time    0.2442: real time    0.2442
  RMM-DIIS:  cpu time    0.3187: real time    0.3187
    ORTHCH:  cpu time    0.0308: real time    0.0307
 BZINTS: Fermi energy:  3.639292; 76.000000 electrons
         Band energy:-602.835713;  BLOECHL correction:  0.000000
       DOS:  cpu time    0.0019: real time    0.0019
    --------------------------------------------
      LOOP:  cpu time    0.6023: real time    0.6026

 eigenvalue-minimisations  :  2590
 total energy-change (2. order) :-0.9343539E-05  (-0.1135228E-04)
 number of electron      76.0000003 magnetization 
 augmentation part       -1.6981680 magnetization 

 Free energy of the ion-electron system (eV)
  ---------------------------------------------------
  alpha Z        PSCENC =        75.35643131
  Ewald energy   TEWEN  =     -2905.26736577
  -Hartree energ DENC   =      -548.47168033
  -exchange      EXHF   =         0.00000000
  -V(xc)+E(xc)   XCENC  =       185.51698701
  PAW double counting   =      7464.52736304    -7515.00873111
  entropy T*S    EENTRO =         0.00000000
  eigenvalues    EBANDS =      -602.83571344
  atomic energy  EATOM  =      3769.08782378
  Solvation  Ediel_sol  =         0.00000000
  ---------------------------------------------------
  free energy    TOTEN  =       -77.09488552 eV

  energy without entropy =      -77.09488552  energy(sigma->0) =      -77.09488552


--------------------------------------------------------------------------------------------------------




 average (electrostatic) potential at core
  the test charge radii are     0.9587  0.9698  0.7079
  (the norm of the test charge is              1.0000)
       1 -87.1949       2 -87.1963       3 -87.3281       4 -87.3574       5 -87.3586
       6 -87.3244       7 -87.3257       8 -87.3639       9 -87.3314      10 -87.3543
      11 -63.3408      12 -63.3186      13 -62.9518      14 -63.3218      15 -63.3310
      16 -62.9534
 
 
 
 E-fermi :   3.6393     XC(G=0):  -9.6097     alpha+bet :-11.5334


 k-point     1 :       0.0000    0.0000    0.0000
  band No.  band energies     occupation 
      1     -40.4938      2.00000
      2     -40.4845      2.00000
      3     -40.4742      2.00000
      4     -40.4715      2.00000
      5     -40.1260      2.00000
      6     -40.1245      2.00000
      7     -11.7910      2.00000
      8     -11.5776      2.00000
      9      -8.9103      2.00000
     10      -8.4680      2.00000
     11      -8.4489      2.00000
     12      -8.4236      2.00000
     13      -8.2087      2.00000
     14      -7.9579      2.00000
     15      -4.8417      2.00000
     16      -4.0334      2.00000
     17      -1.9320      2.00000
     18      -1.7064      2.00000
     19      -1.7029      2.00000
     20      -1.5507      2.00000
     21      -1.2110      2.00000
     22      -1.0001      2.00000
     23       0.7526      2.00000
     24       0.8551      2.00000
     25       1.0990      2.00000
     26       1.1131      2.00000
     27       1.3887      2.00000
     28       1.5363      2.00000
     29       1.5783      2.00000
     30       1.6023      2.00000
     31       2.0167      2.00000
     32       2.4181      2.00000
     33       2.4668      2.00000
     34       2.5827      2.00000
     35       2.8307      2.00000
     36       2.8650      2.00000
     37       3.2238      2.00000
     38       3.2405      2.00000
     39       6.7771      0.00000
     40       7.0245      0.00000
     41       7.1357      0.00000
     42       7.4191      0.00000
     43       8.1476      0.00000
     44       8.3354      0.00000
     45       8.3740      0.00000
     46       9.2346      0.00000
     47       9.2985      0.00000
     48       9.8960      0.00000

 k-point     2 :       0.2500   -0.0000   -0.0000
  band No.  band energies     occupation 
      1     -40.4938      2.00000
      2     -40.4845      2.00000
      3     -40.4742      2.00000
      4     -40.4714      2.00000
      5     -40.1260      2.00000
      6     -40.1245      2.00000
      7     -11.7629      2.00000
      8     -11.6126      2.00000
      9      -8.8357      2.00000
     10      -8.5125      2.00000
     11      -8.4603      2.00000
     12      -8.4229      2.00000
     13      -8.1834      2.00000
     14      -8.0111      2.00000
     15      -4.7270      2.00000
     16      -4.1601      2.00000
     17      -1.9039      2.00000
     18      -1.7481      2.00000
     19      -1.6729      2.00000
     20      -1.4874      2.00000
     21      -1.3026      2.00000
     22      -1.0523      2.00000
     23       0.9290      2.00000
     24       0.9482      2.00000
     25       1.2148      2.00000
     26       1.2591      2.00000
     27       1.3916      2.00000
     28       1.4703      2.00000
     29       1.5901      2.00000
     30       1.6769      2.00000
     31       1.8556      2.00000
     32       2.2751      2.00000
     33       2.3924      2.00000
     34       2.4663      2.00000
     35       2.7812      2.00000
     36       2.7945      2.00000
     37       3.2079      2.00000
     38       3.2560      2.00000
     39       6.7851      0.00000
     40       7.2176      0.00000
     41       7.3316      0.00000
     42       7.3394      0.00000
     43       8.2665      0.00000
     44       8.3060      0.00000
     45       8.4196      0.00000
     46       9.0704      0.00000
     47       9.2881      0.00000
     48       9.5234      0.00000

 k-point     3 :       0.5000   -0.0000   -0.0000
  band No.  band energies     occupation 
      1     -40.4938      2.00000
      2     -40.4845      2.00000
      3     -40.4742      2.00000
      4     -40.4714      2.00000
      5     -40.1260      2.00000
      6     -40.1245      2.00000
      7     -11.6928      2.00000
      8     -11.6896      2.00000
      9      -8.6686      2.00000
     10      -8.6620      2.00000
     11      -8.4414      2.00000
     12      -8.4405      2.00000
     13      -8.1130      2.00000
     14      -8.1088      2.00000
     15      -4.4510      2.00000
     16      -4.4475      2.00000
     17      -1.8339      2.00000
     18      -1.8280      2.00000
     19      -1.5742      2.00000
     20      -1.5681      2.00000
     21      -1.2110      2.00000
     22      -1.2091      2.00000
     23       1.0549      2.00000
     24       1.0629      2.00000
     25       1.3545      2.00000
     26       1.3567      2.00000
     27       1.4791      2.00000
     28       1.4853      2.00000
     29       1.8005      2.00000
     30       1.8067      2.00000
     31       1.8995      2.00000
     32       1.9093      2.00000
     33       2.0277      2.00000
     34       2.0291      2.00000
     35       2.9105      2.00000
     36       2.9123      2.00000
     37       3.1768      2.00000
     38       3.1867      2.00000
     39       6.9308      0.00000
     40       6.9371      0.00000
     41       7.5807      0.00000
     42       7.5903      0.00000
     43       8.3452      0.00000
     44       8.3516      0.00000
     45       8.6717      0.00000
     46       8.6804      0.00000
     47       9.2098      0.00000
     48       9.2693      0.00000

 k-point     4 :       0.0000    0.2500    0.0000
  band No.  band energies     occupation 
      1     -40.4936      2.00000
      2     -40.4843      2.00000
      3     -40.4744      2.00000
      4     -40.4715      2.00000
      5     -40.1260      2.00000
      6     -40.1245      2.00000
      7     -11.6452      2.00000
      8     -11.6225      2.00000
      9      -8.7776      2.00000
     10      -8.6672      2.00000
     11      -8.5168      2.00000
     12      -8.4256      2.00000
     13      -8.2951      2.00000
     14      -8.1852      2.00000
     15      -4.3562      2.00000
     16      -4.2428      2.00000
     17      -1.9344      2.00000
     18      -1.7729      2.00000
     19      -1.5394      2.00000
     20      -1.5147      2.00000
     21      -0.9248      2.00000
     22      -0.8535      2.00000
     23       0.6355      2.00000
     24       0.9679      2.00000
     25       1.0194      2.00000
     26       1.1974      2.00000
     27       1.3674      2.00000
     28       1.6547      2.00000
     29       1.7315      2.00000
     30       1.9345      2.00000
     31       2.1138      2.00000
     32       2.1764      2.00000
     33       2.4122      2.00000
     34       2.4903      2.00000
     35       2.6300      2.00000
     36       2.7757      2.00000
     37       3.0378      2.00000
     38       3.3163      2.00000
     39       6.8381      0.00000
     40       6.9637      0.00000
     41       7.3243      0.00000
     42       7.5269      0.00000
     43       8.0159      0.00000
     44       8.1625      0.00000
     45       8.2874      0.00000
     46       8.6992      0.00000
     47       9.0356      0.00000
     48       9.4472      0.00000

 k-point     5 :       0.2500    0.2500    0.0000
  band No.  band energies     occupation 
      1     -40.4936      2.00000
      2     -40.4842      2.00000
      3     -40.4744      2.00000
      4     -40.4715      2.00000
      5     -40.1260      2.00000
      6     -40.1245      2.00000
      7     -11.6848      2.00000
      8     -11.5798      2.00000
      9      -8.7718      2.00000
     10      -8.7164      2.00000
     11      -8.4884      2.00000
     12      -8.4355      2.00000
     13      -8.2962      2.00000
     14      -8.1590      2.00000
     15      -4.4750      2.00000
     16      -4.1044      2.00000
     17      -1.9950      2.00000
     18      -1.6862      2.00000
     19      -1.6556      2.00000
     20      -1.3657      2.00000
     21      -1.1460      2.00000
     22      -0.6859      2.00000
     23       0.7150      2.00000
     24       0.8200      2.00000
     25       1.0108      2.00000
     26       1.1114      2.00000
     27       1.3668      2.00000
     28       1.6003      2.00000
     29       1.7739      2.00000
     30       1.9392      2.00000
     31       2.0915      2.00000
     32       2.2721      2.00000
     33       2.3317      2.00000
     34       2.5730      2.00000
     35       2.6630      2.00000
     36       2.8291      2.00000
     37       3.0432      2.00000
     38       3.3667      2.00000
     39       6.8022      0.00000
     40       7.0034      0.00000
     41       7.3013      0.00000
     42       7.4453      0.00000
     43       7.9983      0.00000
     44       8.1394      0.00000
     45       8.3281      0.00000
     46       8.5631      0.00000
     47       9.0580      0.00000
     48       9.5429      0.00000

 k-point     6 :       0.5000    0.2500    0.0000
  band No.  band energies     occupation 
      1     -40.4936      2.00000
      2     -40.4842      2.00000
      3     -40.4744      2.00000
      4     -40.4715      2.00000
      5     -40.1260      2.00000
      6     -40.1245      2.00000
      7     -11.7153      2.00000
      8     -11.5439      2.00000
      9      -8.8232      2.00000
     10      -8.6968      2.00000
     11      -8.4933      2.00000
     12      -8.4300      2.00000
     13      -8.3144      2.00000
     14      -8.1104      2.00000
     15      -4.5876      2.00000
     16      -3.9452      2.00000
     17      -1.9413      2.00000
     18      -1.8471      2.00000
     19      -1.5820      2.00000
     20      -1.3183      2.00000
     21      -1.2337      2.00000
     22      -0.6583      2.00000
     23       0.5454      2.00000
     24       0.8558      2.00000
     25       0.9098      2.00000
     26       1.1719      2.00000
     27       1.3985      2.00000
     28       1.5125      2.00000
     29       1.8198      2.00000
     30       1.9767      2.00000
     31       2.1084      2.00000
     32       2.2562      2.00000
     33       2.3139      2.00000
     34       2.6577      2.00000
     35       2.7144      2.00000
     36       2.9824      2.00000
     37       3.0875      2.00000
     38       3.3204      2.00000
     39       6.7254      0.00000
     40       7.0494      0.00000
     41       7.1281      0.00000
     42       7.4942      0.00000
     43       7.8563      0.00000
     44       8.0671      0.00000
     45       8.4317      0.00000
     46       8.4926      0.00000
     47       9.1715      0.00000
     48       9.4779      0.00000

 k-point     7 :      -0.2500    0.2500    0.0000
  band No.  band energies     occupation 
      1     -40.4937      2.00000
      2     -40.4843      2.00000
      3     -40.4744      2.00000
      4     -40.4716      2.00000
      5     -40.1260      2.00000
      6     -40.1245      2.00000
      7     -11.6996      2.00000
      8     -11.5628      2.00000
      9      -8.8186      2.00000
     10      -8.6595      2.00000
     11      -8.5194      2.00000
     12      -8.4232      2.00000
     13      -8.3175      2.00000
     14      -8.1300      2.00000
     15      -4.5417      2.00000
     16      -4.0124      2.00000
     17      -1.9104      2.00000
     18      -1.8278      2.00000
     19      -1.5852      2.00000
     20      -1.3711      2.00000
     21      -1.2084      2.00000
     22      -0.6687      2.00000
     23       0.5052      2.00000
     24       0.8410      2.00000
     25       0.9978      2.00000
     26       1.2520      2.00000
     27       1.4893      2.00000
     28       1.5676      2.00000
     29       1.7539      2.00000
     30       1.9539      2.00000
     31       1.9848      2.00000
     32       2.2525      2.00000
     33       2.4502      2.00000
     34       2.5847      2.00000
     35       2.6563      2.00000
     36       2.8921      2.00000
     37       3.1330      2.00000
     38       3.2557      2.00000
     39       6.7504      0.00000
     40       6.9845      0.00000
     41       7.2273      0.00000
     42       7.5553      0.00000
     43       7.9022      0.00000
     44       7.9730      0.00000
     45       8.4184      0.00000
     46       8.6859      0.00000
     47       9.2027      0.00000
     48       9.6904      0.00000

 k-point     8 :       0.0000    0.5000    0.0000
  band No.  band energies     occupation 
      1     -40.4935      2.00000
      2     -40.4840      2.00000
      3     -40.4747      2.00000
      4     -40.4717      2.00000
      5     -40.1260      2.00000
      6     -40.1245      2.00000
      7     -11.6229      2.00000
      8     -11.5183      2.00000
      9      -8.8990      2.00000
     10      -8.6860      2.00000
     11      -8.5947      2.00000
     12      -8.5017      2.00000
     13      -8.3205      2.00000
     14      -8.2947      2.00000
     15      -4.2477      2.00000
     16      -4.0140      2.00000
     17      -2.0856      2.00000
     18      -1.8316      2.00000
     19      -1.6514      2.00000
     20      -0.8771      2.00000
     21      -0.8012      2.00000
     22      -0.5333      2.00000
     23       0.5690      2.00000
     24       0.8048      2.00000
     25       0.9851      2.00000
[...]
     17      -1.8684      2.00000
     18      -1.5512      2.00000
     19      -1.1706      2.00000
     20      -1.0814      2.00000
     21      -0.7316      2.00000
     22      -0.5075      2.00000
     23       0.2392      2.00000
     24       0.4140      2.00000
     25       0.7362      2.00000
     26       0.9453      2.00000
     27       1.1642      2.00000
     28       1.3947      2.00000
     29       1.7484      2.00000
     30       1.8672      2.00000
     31       1.9604      2.00000
     32       2.1842      2.00000
     33       2.6365      2.00000
     34       2.6753      2.00000
     35       2.9586      2.00000
     36       3.0196      2.00000
     37       3.3733      2.00000
     38       3.5156      2.00000
     39       6.2878      0.00000
     40       6.6790      0.00000
     41       7.3023      0.00000
     42       7.5915      0.00000
     43       7.7593      0.00000
     44       7.8393      0.00000
     45       8.0010      0.00000
     46       8.3697      0.00000
     47       8.6973      0.00000
     48       9.3018      0.00000

 k-point    32 :       0.5000    0.2500    0.5000
  band No.  band energies     occupation 
      1     -40.4912      2.00000
      2     -40.4849      2.00000
      3     -40.4752      2.00000
      4     -40.4695      2.00000
      5     -40.1254      2.00000
      6     -40.1239      2.00000
      7     -11.5434      2.00000
      8     -11.5181      2.00000
      9      -8.8091      2.00000
     10      -8.7619      2.00000
     11      -8.6908      2.00000
     12      -8.5272      2.00000
     13      -8.4610      2.00000
     14      -8.3418      2.00000
     15      -4.1177      2.00000
     16      -3.9701      2.00000
     17      -1.7602      2.00000
     18      -1.6251      2.00000
     19      -1.2243      2.00000
     20      -1.0791      2.00000
     21      -0.7311      2.00000
     22      -0.6368      2.00000
     23       0.3520      2.00000
     24       0.4784      2.00000
     25       0.7944      2.00000
     26       0.8471      2.00000
     27       1.2779      2.00000
     28       1.4045      2.00000
     29       1.6777      2.00000
     30       1.9228      2.00000
     31       1.9633      2.00000
     32       2.1915      2.00000
     33       2.4948      2.00000
     34       2.6299      2.00000
     35       2.9703      2.00000
     36       3.1176      2.00000
     37       3.3071      2.00000
     38       3.5146      2.00000
     39       6.3667      0.00000
     40       6.5545      0.00000
     41       7.2899      0.00000
     42       7.5148      0.00000
     43       7.7599      0.00000
     44       7.9031      0.00000
     45       8.2089      0.00000
     46       8.3655      0.00000
     47       8.9032      0.00000
     48       9.2378      0.00000

 k-point    33 :      -0.2500    0.2500    0.5000
  band No.  band energies     occupation 
      1     -40.4912      2.00000
      2     -40.4849      2.00000
      3     -40.4752      2.00000
      4     -40.4695      2.00000
      5     -40.1254      2.00000
      6     -40.1239      2.00000
      7     -11.5855      2.00000
      8     -11.4723      2.00000
      9      -8.8190      2.00000
     10      -8.7764      2.00000
     11      -8.6722      2.00000
     12      -8.5675      2.00000
     13      -8.4732      2.00000
     14      -8.2846      2.00000
     15      -4.2431      2.00000
     16      -3.8079      2.00000
     17      -1.8475      2.00000
     18      -1.6569      2.00000
     19      -1.2466      2.00000
     20      -0.9345      2.00000
     21      -0.7711      2.00000
     22      -0.5689      2.00000
     23       0.2483      2.00000
     24       0.5253      2.00000
     25       0.6684      2.00000
     26       0.9775      2.00000
     27       1.3500      2.00000
     28       1.3651      2.00000
     29       1.4814      2.00000
     30       1.7530      2.00000
     31       1.9254      2.00000
     32       2.4096      2.00000
     33       2.5507      2.00000
     34       2.7944      2.00000
     35       2.9511      2.00000
     36       3.0862      2.00000
     37       3.2810      2.00000
     38       3.5943      2.00000
     39       6.2725      0.00000
     40       6.7307      0.00000
     41       7.1822      0.00000
     42       7.5742      0.00000
     43       7.7590      0.00000
     44       7.7997      0.00000
     45       8.0288      0.00000
     46       8.3361      0.00000
     47       8.7168      0.00000
     48       9.3837      0.00000

 k-point    34 :       0.0000    0.5000    0.5000
  band No.  band energies     occupation 
      1     -40.4911      2.00000
      2     -40.4846      2.00000
      3     -40.4754      2.00000
      4     -40.4696      2.00000
      5     -40.1254      2.00000
      6     -40.1239      2.00000
      7     -11.5845      2.00000
      8     -11.5602      2.00000
      9      -8.8362      2.00000
     10      -8.8255      2.00000
     11      -8.5745      2.00000
     12      -8.4584      2.00000
     13      -8.3248      2.00000
     14      -8.2560      2.00000
     15      -4.2714      2.00000
     16      -4.0942      2.00000
     17      -2.0628      2.00000
     18      -1.8249      2.00000
     19      -1.3849      2.00000
     20      -1.2280      2.00000
     21      -0.4988      2.00000
     22      -0.4561      2.00000
     23       0.4420      2.00000
     24       0.5934      2.00000
     25       0.7974      2.00000
     26       0.9945      2.00000
     27       1.3797      2.00000
     28       1.4026      2.00000
     29       1.6249      2.00000
     30       1.8691      2.00000
     31       1.9282      2.00000
     32       2.4485      2.00000
     33       2.6257      2.00000
     34       2.6509      2.00000
     35       2.9118      2.00000
     36       2.9285      2.00000
     37       3.2771      2.00000
     38       3.4800      2.00000
     39       6.4549      0.00000
     40       6.8286      0.00000
     41       7.2129      0.00000
     42       7.4789      0.00000
     43       7.6648      0.00000
     44       7.8937      0.00000
     45       8.3964      0.00000
     46       8.4823      0.00000
     47       8.8138      0.00000
     48       9.0606      0.00000

 k-point    35 :       0.2500    0.5000    0.5000
  band No.  band energies     occupation 
      1     -40.4911      2.00000
      2     -40.4846      2.00000
      3     -40.4754      2.00000
      4     -40.4696      2.00000
      5     -40.1254      2.00000
      6     -40.1239      2.00000
      7     -11.6097      2.00000
      8     -11.5339      2.00000
      9      -8.8837      2.00000
     10      -8.7460      2.00000
     11      -8.5808      2.00000
     12      -8.4812      2.00000
     13      -8.3232      2.00000
     14      -8.2698      2.00000
     15      -4.2600      2.00000
     16      -4.0553      2.00000
     17      -2.1002      2.00000
     18      -1.7459      2.00000
     19      -1.5974      2.00000
     20      -1.0889      2.00000
     21      -0.6742      2.00000
     22      -0.3948      2.00000
     23       0.4455      2.00000
     24       0.7765      2.00000
     25       0.8490      2.00000
     26       1.0447      2.00000
     27       1.3018      2.00000
     28       1.4246      2.00000
     29       1.5097      2.00000
     30       1.7498      2.00000
     31       2.0144      2.00000
     32       2.3167      2.00000
     33       2.5008      2.00000
     34       2.7318      2.00000
     35       2.8564      2.00000
     36       3.1683      2.00000
     37       3.3349      2.00000
     38       3.4789      2.00000
     39       6.4384      0.00000
     40       7.0249      0.00000
     41       7.1376      0.00000
     42       7.4460      0.00000
     43       7.7212      0.00000
     44       7.8964      0.00000
     45       8.2780      0.00000
     46       8.5308      0.00000
     47       8.7963      0.00000
     48       9.2119      0.00000

 k-point    36 :       0.5000    0.5000    0.5000
  band No.  band energies     occupation 
      1     -40.4911      2.00000
      2     -40.4846      2.00000
      3     -40.4754      2.00000
      4     -40.4696      2.00000
      5     -40.1254      2.00000
      6     -40.1239      2.00000
      7     -11.6235      2.00000
      8     -11.5190      2.00000
      9      -8.8982      2.00000
     10      -8.6891      2.00000
     11      -8.5977      2.00000
     12      -8.5020      2.00000
     13      -8.3163      2.00000
     14      -8.2909      2.00000
     15      -4.2489      2.00000
     16      -4.0142      2.00000
     17      -2.0891      2.00000
     18      -1.8332      2.00000
     19      -1.6486      2.00000
     20      -0.8784      2.00000
     21      -0.7979      2.00000
     22      -0.5380      2.00000
     23       0.5659      2.00000
     24       0.8034      2.00000
     25       0.9889      2.00000
     26       1.1182      2.00000
     27       1.2251      2.00000
     28       1.4427      2.00000
     29       1.4773      2.00000
     30       1.6493      2.00000
     31       1.9972      2.00000
     32       2.1209      2.00000
     33       2.4573      2.00000
     34       2.6774      2.00000
     35       3.1043      2.00000
     36       3.1532      2.00000
     37       3.4046      2.00000
     38       3.5119      2.00000
     39       6.4499      0.00000
     40       7.0387      0.00000
     41       7.2695      0.00000
     42       7.3831      0.00000
     43       7.6882      0.00000
     44       7.8667      0.00000
     45       8.2705      0.00000
     46       8.6729      0.00000
     47       8.7053      0.00000
     48       9.2668      0.00000


--------------------------------------------------------------------------------------------------------


 soft charge-density along one line, spin component           1
         0         1         2         3         4         5         6         7         8         9
 total charge-density along one line
 
 pseudopotential strength for first ion, spin component:           1
 29.807  37.190   0.000   0.000  -0.000   0.001   0.000  -0.001
 37.190  46.404   0.001   0.000  -0.000   0.001   0.000  -0.001
  0.000   0.001   6.544   0.000   0.000  10.133   0.000   0.000
  0.000   0.000   0.000   6.544   0.000   0.000  10.133   0.000
 -0.000  -0.000   0.000   0.000   6.544   0.000   0.000  10.133
  0.001   0.001  10.133   0.000   0.000  15.710   0.000   0.000
  0.000   0.000   0.000  10.133   0.000   0.000  15.710   0.000
 -0.001  -0.001   0.000   0.000  10.133   0.000   0.000  15.710
 total augmentation occupancy for first ion, spin component:           1
 11.353  -6.634  -0.038  -0.015   0.030   0.019   0.007  -0.015
 -6.634   4.383   0.025   0.011  -0.020  -0.012  -0.005   0.010
 -0.038   0.025   4.402   0.103  -0.009  -1.479  -0.049   0.005
 -0.015   0.011   0.103   4.311   0.102  -0.049  -1.436  -0.049
  0.030  -0.020  -0.009   0.102   4.457   0.005  -0.049  -1.505
  0.019  -0.012  -1.479  -0.049   0.005   0.541   0.022  -0.002
  0.007  -0.005  -0.049  -1.436  -0.049   0.022   0.521   0.022
 -0.015   0.010   0.005  -0.049  -1.505  -0.002   0.022   0.552


------------------------ aborting loop because EDIFF is reached ----------------------------------------


    CHARGE:  cpu time    0.0432: real time    0.0433
    FORLOC:  cpu time    0.0014: real time    0.0014
    FORNL :  cpu time    0.2010: real time    0.2010
    STRESS:  cpu time    0.5964: real time    0.5964
    FORCOR:  cpu time    0.0045: real time    0.0045
    FORHAR:  cpu time    0.0037: real time    0.0037
    MIXING:  cpu time    0.0003: real time    0.0003
    OFIELD:  cpu time    0.0000: real time    0.0000

  FORCE on cell =-STRESS in cart. coord.  units (eV):
  Direction    XX          YY          ZZ          XY          YZ          ZX
  --------------------------------------------------------------------------------------
  Alpha Z    75.35601    75.35601    75.35601
  Ewald    -941.28650  -940.02493 -1023.94924   -14.49622    36.79498    14.00002
  Hartree   192.43806   195.18420   160.87316    -5.95954    12.66809     2.16102
  E(xc)    -277.27625  -277.27400  -277.21273    -0.00122    -0.01721    -0.00085
  Local    -603.78882  -608.98854  -494.28746    19.50992   -46.19625   -13.17069
  n-local   614.92725   615.01952   613.00264     0.00034     0.41769    -0.22522
  augment   -42.76341   -42.88811   -43.00357    -0.01871     0.18096     0.20555
  Kinetic   982.34507   983.61536   989.20056     0.96887    -3.85579    -2.95422
  Fock        0.00000     0.00000     0.00000     0.00000     0.00000     0.00000
  -------------------------------------------------------------------------------------
  Total      -0.04861    -0.00049    -0.02064     0.00345    -0.00754     0.01561
  in kB      -0.29740    -0.00302    -0.12627     0.02108    -0.04612     0.09553
  external pressure =       -0.14 kB  Pullay stress =        0.00 kB


 VOLUME and BASIS-vectors are now :
 -----------------------------------------------------------------------------
  energy-cutoff  :      420.00
  volume of cell :      261.86
      direct lattice vectors                 reciprocal lattice vectors
    12.610265205 -2.771228176 -0.526116979     0.091611748  0.057115523 -0.005762428
    -2.959351460  4.882334120  1.344174384     0.053478585  0.256934093 -0.071550360
    -0.682434135  1.635776932  5.363931769    -0.004415800 -0.058784264  0.203795368

  length of vectors
    12.921892014  5.865300699  5.649181050     0.108111521  0.272019377  0.212150044


 FORCES acting on ions
    electron-ion (+dipol)            ewald-force                    non-local-force                 convergence-correction
 -----------------------------------------------------------------------------------------------
   0.117E+01 -.102E+01 -.455E+00   -.102E+01 0.844E+00 0.412E+00   -.142E+00 0.179E+00 0.420E-01   0.280E-03 0.103E-02 -.481E-03
   -.775E+00 0.136E+01 0.615E+00   0.706E+00 -.113E+01 -.532E+00   0.584E-01 -.231E+00 -.852E-01   -.507E-03 -.130E-02 0.551E-04
   0.450E+02 -.304E+02 0.518E+02   -.454E+02 0.309E+02 -.535E+02   0.455E+00 -.445E+00 0.163E+01   0.400E-02 0.113E-02 0.980E-04
   -.750E+02 0.600E+00 0.317E+02   0.762E+02 -.460E+00 -.324E+02   -.125E+01 -.145E+00 0.759E+00   0.390E-02 0.163E-02 -.653E-03
   0.284E+02 0.765E+02 -.952E+01   -.289E+02 -.778E+02 0.998E+01   0.506E+00 0.131E+01 -.456E+00   0.297E-02 0.236E-02 -.670E-04
   -.689E+01 -.301E+02 -.694E+02   0.698E+01 0.301E+02 0.710E+02   -.909E-01 -.302E-01 -.167E+01   0.259E-02 0.243E-02 -.203E-03
   -.454E+02 0.315E+02 -.521E+02   0.458E+02 -.320E+02 0.537E+02   -.447E+00 0.522E+00 -.154E+01   -.418E-02 -.229E-02 -.718E-03
   0.757E+02 -.214E+01 -.302E+02   -.769E+02 0.207E+01 0.310E+02   0.125E+01 0.675E-01 -.785E+00   -.404E-02 -.841E-03 0.388E-03
   0.742E+01 0.295E+02 0.681E+02   -.759E+01 -.295E+02 -.698E+02   0.181E+00 -.521E-01 0.173E+01   -.379E-02 -.207E-02 0.589E-03
   -.289E+02 -.763E+02 0.105E+02   0.295E+02 0.775E+02 -.110E+02   -.565E+00 -.126E+01 0.451E+00   -.206E-02 -.242E-02 0.111E-03
   -.111E+01 -.734E+01 -.149E+02   0.114E+01 0.638E+01 0.143E+02   -.254E-01 0.960E+00 0.645E+00   -.434E-04 -.534E-03 -.737E-04
   0.631E+00 0.830E+01 0.135E+02   -.748E+00 -.727E+01 -.128E+02   0.121E+00 -.104E+01 -.606E+00   0.441E-03 0.271E-03 0.484E-05
   0.323E+00 -.681E+00 0.413E+00   -.266E+00 0.521E+00 -.405E+00   -.610E-01 0.156E+00 -.111E-02   0.157E-02 0.681E-03 0.252E-03
   0.103E+02 -.771E+01 0.943E+01   -.935E+01 0.700E+01 -.928E+01   -.956E+00 0.714E+00 -.149E+00   -.284E-03 -.196E-03 -.164E-03
   -.103E+02 0.769E+01 -.101E+02   0.935E+01 -.703E+01 0.994E+01   0.959E+00 -.661E+00 0.174E+00   0.457E-03 0.275E-03 0.788E-05
   -.583E+00 0.188E+00 0.521E+00   0.493E+00 -.766E-01 -.470E+00   0.919E-01 -.110E+00 -.503E-01   -.204E-02 -.100E-02 0.400E-03
 -----------------------------------------------------------------------------------------------
   -.846E-01 0.607E-01 -.854E-01   -.248E-13 0.390E-13 0.216E-14   0.866E-01 -.594E-01 0.869E-01   -.742E-03 -.844E-03 -.453E-03
 
 
 POSITION                                       TOTAL-FORCE (eV/Angst)
 -----------------------------------------------------------------------------------
     -0.82281      5.64194      6.00532         0.010070      0.003695     -0.000801
      8.33005     -0.69952      1.92640        -0.010996     -0.002565     -0.001441
      0.96796      1.80426      3.34681        -0.002650      0.004182      0.000387
      4.09513      0.67599      4.08978        -0.008637     -0.003650      0.001538
     -0.87214      2.10012      0.66644        -0.004614     -0.004583     -0.001660
      2.79294      0.02101      1.13413         0.001975     -0.002606      0.000072
      6.53822      3.12353      4.57201         0.002126      0.001117      0.000292
      6.37390     -0.59602      2.50624         0.007761      0.001810     -0.005732
      8.33684     -1.58694      0.08326         0.002175      0.001396     -0.001068
      9.07964      1.19824      1.89703         0.000941      0.008028     -0.000638
      5.15577      0.71536      0.47645         0.003918     -0.005739     -0.000152
      2.99248      2.65238      2.07943         0.004576     -0.005619      0.002049
      0.69173      3.18654      5.29312        -0.003280     -0.003643      0.007182
      9.05549      1.92027      4.46752        -0.001155      0.003901     -0.001225
     -1.53267      2.98972      3.44635        -0.001675      0.003650      0.000770
      6.83599      1.77997      2.59615        -0.000536      0.000624      0.000427
 -----------------------------------------------------------------------------------
    total drift:                                0.001195      0.000456      0.001014


--------------------------------------------------------------------------------------------------------



  FREE ENERGIE OF THE ION-ELECTRON SYSTEM (eV)
  ---------------------------------------------------
  free  energy   TOTEN  =       -77.09493602 eV

  energy  without entropy=      -77.09493602  energy(sigma->0) =      -77.09493602
 
 d Force = 0.4422710E-07[ 0.715E-07, 0.169E-07]  d Energy = 0.8369943E-05-0.833E-05
 d Force = 0.7129356E-04[ 0.713E-04, 0.713E-04]  d Ewald  = 0.1158854E-03-0.446E-04


--------------------------------------------------------------------------------------------------------


    POTLOK:  cpu time    0.0054: real time    0.0054


--------------------------------------------------------------------------------------------------------




--------------------------------------------------------------------------------------------------------


  
 reached required accuracy - stopping structural energy minimisation
     LOOP+:  cpu time    2.5195: real time    2.5475
    4ORBIT:  cpu time    0.0000: real time    0.0000
 BZINTS: Fermi energy:  3.654725; 76.000000 electrons
         Band energy:-602.835608;  BLOECHL correction:  0.000000

 total amount of memory used by VASP MPI-rank0    36994. kBytes
=======================================================================

   base      :      30000. kBytes
   nonlr-proj:       2043. kBytes
   fftplans  :        959. kBytes
   grid      :       1639. kBytes
   one-center:          3. kBytes
   wavefun   :       2350. kBytes
 
  
  
 General timing and accounting informations for this job:
 ========================================================
  
                  Total CPU time used (sec):       23.022
                            User time (sec):       22.487
                          System time (sec):        0.535
                         Elapsed time (sec):       24.809
  
                   Maximum memory used (kb):      176272.
                   Average memory used (kb):           0.
  
                          Minor page faults:        39267
                          Major page faults:          117
                 Voluntary context switches:         1901
