<?xml version="1.0" encoding="ISO-8859-1"?>
<modeling>
 <generator>
  <i name="program" type="string">vasp </i>
  <i name="version" type="string">5.4.4.18Apr17-6-g9f103f2a35  </i>
  <i name="subversion" type="string">(build Feb 28 2020 14:15:47) complex            parallel </i>
  <i name="platform" type="string">LinuxIFC </i>
  <i name="date" type="string">2022 11 20 </i>
  <i name="time" type="string">05:26:52 </i>
 </generator>
 <incar>
  <i type="int" name="ISTART">     0</i>
  <i type="string" name="PREC">accurate</i>
  <i type="string" name="ALGO"> FAST</i>
  <i type="int" name="ISPIN">     1</i>
  <i type="int" name="ICHARG">     2</i>
  <i type="int" name="INIWAV">     1</i>
  <i type="int" name="NELM">   100</i>
  <i type="int" name="IBRION">     2</i>
  <i name="EDIFF">      0.00002000</i>
  <i name="EDIFFG">      0.00020000</i>
  <i type="int" name="NSW">   100</i>
  <i type="int" name="ISIF">     3</i>
  <i name="ENCUT">    420.00000000</i>
  <i type="string" name="LREAL"> AUTO</i>
  <i type="int" name="ISMEAR">    -5</i>
  <i type="logical" name="LWAVE"> F  </i>
  <i type="logical" name="LCHARG"> F  </i>
  <v type="int" name="KPOINT_BSE">    -1     0     0     0</v>
  <i type="int" name="NELM">   100</i>
 </incar>
 <structure name="primitive_cell" >
  <crystal>
   <varray name="basis" >
    <v>      12.60936945      -2.77113267      -0.52563695 </v>
    <v>      -2.95901687       4.88253190       1.34400094 </v>
    <v>      -0.68217104       1.63577401       5.36390033 </v>
   </varray>
   <i name="volume">    261.86163370 </i>
   <varray name="rec_basis" >
    <v>       0.09161683       0.05711044      -0.00576473 </v>
    <v>       0.05347960       0.25691746      -0.07154806 </v>
    <v>      -0.00442205      -0.05877774       0.20379396 </v>
   </varray>
  </crystal>
  <varray name="positions" >
   <v>       0.21231104      -0.02401232      -0.10417871 </v>
   <v>       0.39018480       0.10005858      -0.22431098 </v>
   <v>       0.03619808       0.44519375       0.01623809 </v>
   <v>       0.25051768       0.07361878       0.21755324 </v>
   <v>       0.17242955       0.27586192      -0.42829744 </v>
   <v>       0.21490003       0.47708572      -0.11174232 </v>
   <v>      -0.48956314       0.42548855       0.03226389 </v>
   <v>      -0.08648353      -0.34204295      -0.24238603 </v>
   <v>       0.01048861       0.43957526      -0.46662909 </v>
   <v>       0.41365485      -0.30719427       0.25461073 </v>
   <v>      -0.11066855      -0.34225515       0.27607961 </v>
   <v>      -0.46453157       0.00841694      -0.48234416 </v>
   <v>      -0.28798234       0.12781317       0.39697003 </v>
   <v>      -0.24896421      -0.17497624      -0.28070089 </v>
   <v>      -0.32736902       0.03213948       0.07345668 </v>
   <v>      -0.28704132      -0.36285394       0.39426051 </v>
  </varray>
 </structure>
 <varray name="primitive_index" >
  <v type="int" >        1 </v>
  <v type="int" >        4 </v>
  <v type="int" >        5 </v>
  <v type="int" >        6 </v>
  <v type="int" >        3 </v>
  <v type="int" >       13 </v>
  <v type="int" >       11 </v>
  <v type="int" >       14 </v>
  <v type="int" >       15 </v>
  <v type="int" >       12 </v>
  <v type="int" >       10 </v>
  <v type="int" >        8 </v>
  <v type="int" >        2 </v>
  <v type="int" >        7 </v>
  <v type="int" >        9 </v>
  <v type="int" >       16 </v>
 </varray>
 <kpoints>
  <generation param="Gamma">
   <v type="int" name="divisions">       4        4        4 </v>
   <v name="usershift">      0.00000000       0.00000000       0.00000000 </v>
   <v name="genvec1">      0.25000000       0.00000000       0.00000000 </v>
   <v name="genvec2">     -0.00000000       0.25000000       0.00000000 </v>
   <v name="genvec3">      0.00000000      -0.00000000       0.25000000 </v>
   <v name="shift">      0.00000000       0.00000000       0.00000000 </v>
  </generation>
  <varray name="kpointlist" >
   <v>       0.00000000       0.00000000       0.00000000 </v>
   <v>       0.25000000      -0.00000000      -0.00000000 </v>
   <v>       0.50000000      -0.00000000      -0.00000000 </v>
   <v>       0.00000000       0.25000000       0.00000000 </v>
   <v>       0.25000000       0.25000000       0.00000000 </v>
   <v>       0.50000000       0.25000000       0.00000000 </v>
   <v>      -0.25000000       0.25000000       0.00000000 </v>
   <v>       0.00000000       0.50000000       0.00000000 </v>
   <v>       0.25000000       0.50000000       0.00000000 </v>
   <v>       0.50000000       0.50000000       0.00000000 </v>
   <v>      -0.00000000       0.00000000       0.25000000 </v>
   <v>       0.25000000       0.00000000       0.25000000 </v>
   <v>       0.50000000       0.00000000       0.25000000 </v>
   <v>      -0.25000000       0.00000000       0.25000000 </v>
   <v>       0.00000000       0.25000000       0.25000000 </v>
   <v>       0.25000000       0.25000000       0.25000000 </v>
   <v>       0.50000000       0.25000000       0.25000000 </v>
   <v>      -0.25000000       0.25000000       0.25000000 </v>
   <v>      -0.00000000       0.50000000       0.25000000 </v>
   <v>       0.25000000       0.50000000       0.25000000 </v>
   <v>       0.50000000       0.50000000       0.25000000 </v>
   <v>      -0.25000000       0.50000000       0.25000000 </v>
   <v>      -0.00000000      -0.25000000       0.25000000 </v>
   <v>       0.25000000      -0.25000000       0.25000000 </v>
   <v>       0.50000000      -0.25000000       0.25000000 </v>
   <v>      -0.25000000      -0.25000000       0.25000000 </v>
   <v>      -0.00000000       0.00000000       0.50000000 </v>
   <v>       0.25000000       0.00000000       0.50000000 </v>
   <v>       0.50000000       0.00000000       0.50000000 </v>
   <v>       0.00000000       0.25000000       0.50000000 </v>
   <v>       0.25000000       0.25000000       0.50000000 </v>
   <v>       0.50000000       0.25000000       0.50000000 </v>
   <v>      -0.25000000       0.25000000       0.50000000 </v>
   <v>       0.00000000       0.50000000       0.50000000 </v>
   <v>       0.25000000       0.50000000       0.50000000 </v>
   <v>       0.50000000       0.50000000       0.50000000 </v>
  </varray>
  <varray name="weights" >
   <v>       0.01562500 </v>
   <v>       0.03125000 </v>
   <v>       0.01562500 </v>
   <v>       0.03125000 </v>
   <v>       0.03125000 </v>
   <v>       0.03125000 </v>
   <v>       0.03125000 </v>
   <v>       0.01562500 </v>
   <v>       0.03125000 </v>
   <v>       0.01562500 </v>
   <v>       0.03125000 </v>
   <v>       0.03125000 </v>
   <v>       0.03125000 </v>
   <v>       0.03125000 </v>
   <v>       0.03125000 </v>
   <v>       0.03125000 </v>
   <v>       0.03125000 </v>
   <v>       0.03125000 </v>
   <v>       0.03125000 </v>
   <v>       0.03125000 </v>
   <v>       0.03125000 </v>
   <v>       0.03125000 </v>
   <v>       0.03125000 </v>
   <v>       0.03125000 </v>
   <v>       0.03125000 </v>
   <v>       0.03125000 </v>
   <v>       0.01562500 </v>
   <v>       0.03125000 </v>
   <v>       0.01562500 </v>
   <v>       0.03125000 </v>
   <v>       0.03125000 </v>
   <v>       0.03125000 </v>
   <v>       0.03125000 </v>
   <v>       0.01562500 </v>
   <v>       0.03125000 </v>
   <v>       0.01562500 </v>
  </varray>
  <varray name="tetrahedronlist"  type="int" >
   <v type="int" >        2        2        4        5       15 </v>
   <v type="int" >        2        1        2        4       15 </v>
   <v type="int" >        2        1        2       11       15 </v>
   <v type="int" >        2        2        5       15       16 </v>
   <v type="int" >        2        2       12       15       16 </v>
   <v type="int" >        2        2       11       12       15 </v>
   <v type="int" >        2        3        5        6       16 </v>
   <v type="int" >        2        2        3        5       16 </v>
   <v type="int" >        2        2        3       12       16 </v>
   <v type="int" >        2        3        6       16       17 </v>
   <v type="int" >        2        3       13       16       17 </v>
   <v type="int" >        2        3       12       13       16 </v>
   <v type="int" >        2        2        6        7       17 </v>
   <v type="int" >        2        2        3        6       17 </v>
   <v type="int" >        2        2        3       13       17 </v>
   <v type="int" >        2        2        7       17       18 </v>
   <v type="int" >        2        2       14       17       18 </v>
   <v type="int" >        2        2       13       14       17 </v>
   <v type="int" >        2        1        4        7       18 </v>
   <v type="int" >        2        1        2        7       18 </v>
   <v type="int" >        2        1        2       14       18 </v>
   <v type="int" >        2        1        4       15       18 </v>
   <v type="int" >        2        1       11       15       18 </v>
   <v type="int" >        2        1       11       14       18 </v>
   <v type="int" >        2        5        8        9       19 </v>
   <v type="int" >        2        4        5        8       19 </v>
   <v type="int" >        2        4        5       15       19 </v>
   <v type="int" >        2        5        9       19       20 </v>
   <v type="int" >        2        5       16       19       20 </v>
   <v type="int" >        2        5       15       16       19 </v>
   <v type="int" >        2        6        9       10       20 </v>
   <v type="int" >        2        5        6        9       20 </v>
   <v type="int" >        2        5        6       16       20 </v>
   <v type="int" >        2        6       10       20       21 </v>
   <v type="int" >        2        6       17       20       21 </v>
   <v type="int" >        2        6       16       17       20 </v>
   <v type="int" >        2        7        9       10       21 </v>
   <v type="int" >        2        6        7       10       21 </v>
   <v type="int" >        2        6        7       17       21 </v>
   <v type="int" >        2        7        9       21       22 </v>
   <v type="int" >        2        7       18       21       22 </v>
   <v type="int" >        2        7       17       18       21 </v>
   <v type="int" >        2        4        8        9       22 </v>
   <v type="int" >        2        4        7        9       22 </v>
   <v type="int" >        2        4        7       18       22 </v>
   <v type="int" >        2        4        8       19       22 </v>
   <v type="int" >        2        4       15       19       22 </v>
   <v type="int" >        2        4       15       18       22 </v>
   <v type="int" >        2        4        7        9       23 </v>
   <v type="int" >        2        4        8        9       23 </v>
   <v type="int" >        2        8        9       19       23 </v>
   <v type="int" >        2        7        9       23       24 </v>
   <v type="int" >        2        9       20       23       24 </v>
   <v type="int" >        2        9       19       20       23 </v>
   <v type="int" >        2        6        7       10       24 </v>
   <v type="int" >        2        7        9       10       24 </v>
   <v type="int" >        2        9       10       20       24 </v>
   <v type="int" >        2        6       10       24       25 </v>
   <v type="int" >        2       10       21       24       25 </v>
   <v type="int" >        2       10       20       21       24 </v>
   <v type="int" >        2        5        6        9       25 </v>
   <v type="int" >        2        6        9       10       25 </v>
   <v type="int" >        2        9       10       21       25 </v>
   <v type="int" >        2        5        9       25       26 </v>
   <v type="int" >        2        9       22       25       26 </v>
   <v type="int" >        2        9       21       22       25 </v>
   <v type="int" >        2        4        5        8       26 </v>
   <v type="int" >        2        5        8        9       26 </v>
   <v type="int" >        2        8        9       22       26 </v>
   <v type="int" >        2        4        8       23       26 </v>
   <v type="int" >        2        8       19       23       26 </v>
   <v type="int" >        2        8       19       22       26 </v>
   <v type="int" >        2        1        2        7       11 </v>
   <v type="int" >        2        1        4        7       11 </v>
   <v type="int" >        2        4        7       11       23 </v>
   <v type="int" >        2        2        7       11       12 </v>
   <v type="int" >        2        7       11       12       24 </v>
   <v type="int" >        2        7       11       23       24 </v>
   <v type="int" >        2        2        3        6       12 </v>
   <v type="int" >        2        2        6        7       12 </v>
   <v type="int" >        2        6        7       12       24 </v>
   <v type="int" >        2        3        6       12       13 </v>
   <v type="int" >        2        6       12       13       25 </v>
   <v type="int" >        2        6       12       24       25 </v>
   <v type="int" >        2        2        3        5       13 </v>
   <v type="int" >        2        3        5        6       13 </v>
   <v type="int" >        2        5        6       13       25 </v>
   <v type="int" >        2        2        5       13       14 </v>
   <v type="int" >        2        5       13       14       26 </v>
   <v type="int" >        2        5       13       25       26 </v>
   <v type="int" >        2        1        2        4       14 </v>
   <v type="int" >        2        2        4        5       14 </v>
   <v type="int" >        2        4        5       14       26 </v>
   <v type="int" >        2        1        4       11       14 </v>
   <v type="int" >        2        4       11       14       23 </v>
   <v type="int" >        2        4       14       23       26 </v>
   <v type="int" >        2       12       15       16       30 </v>
   <v type="int" >        2       11       12       15       30 </v>
   <v type="int" >        2       11       12       27       30 </v>
   <v type="int" >        2       12       16       30       31 </v>
   <v type="int" >        2       12       28       30       31 </v>
   <v type="int" >        2       12       27       28       30 </v>
   <v type="int" >        2       13       16       17       31 </v>
   <v type="int" >        2       12       13       16       31 </v>
   <v type="int" >        2       12       13       28       31 </v>
   <v type="int" >        2       13       17       31       32 </v>
   <v type="int" >        2       13       29       31       32 </v>
   <v type="int" >        2       13       28       29       31 </v>
   <v type="int" >        2       14       17       18       32 </v>
   <v type="int" >        2       13       14       17       32 </v>
   <v type="int" >        2       13       14       29       32 </v>
   <v type="int" >        2       14       18       32       33 </v>
   <v type="int" >        2       14       28       32       33 </v>
   <v type="int" >        2       14       28       29       32 </v>
   <v type="int" >        2       11       15       18       33 </v>
   <v type="int" >        2       11       14       18       33 </v>
   <v type="int" >        2       11       14       28       33 </v>
   <v type="int" >        2       11       15       30       33 </v>
   <v type="int" >        2       11       27       30       33 </v>
   <v type="int" >        2       11       27       28       33 </v>
   <v type="int" >        2       16       19       20       34 </v>
   <v type="int" >        2       15       16       19       34 </v>
   <v type="int" >        2       15       16       30       34 </v>
   <v type="int" >        2       16       20       34       35 </v>
   <v type="int" >        2       16       31       34       35 </v>
   <v type="int" >        2       16       30       31       34 </v>
   <v type="int" >        2       17       20       21       35 </v>
   <v type="int" >        2       16       17       20       35 </v>
   <v type="int" >        2       16       17       31       35 </v>
   <v type="int" >        2       17       21       35       36 </v>
   <v type="int" >        2       17       32       35       36 </v>
   <v type="int" >        2       17       31       32       35 </v>
   <v type="int" >        2       18       21       22       36 </v>
   <v type="int" >        2       17       18       21       36 </v>
   <v type="int" >        2       17       18       32       36 </v>
   <v type="int" >        2       18       22       35       36 </v>
   <v type="int" >        2       18       33       35       36 </v>
   <v type="int" >        2       18       32       33       36 </v>
   <v type="int" >        2       15       19       22       35 </v>
   <v type="int" >        2       15       18       22       35 </v>
   <v type="int" >        2       15       18       33       35 </v>
   <v type="int" >        2       15       19       34       35 </v>
   <v type="int" >        2       15       30       34       35 </v>
   <v type="int" >        2       15       30       33       35 </v>
   <v type="int" >        2       20       23       24       30 </v>
   <v type="int" >        2       19       20       23       30 </v>
   <v type="int" >        2       19       20       30       34 </v>
   <v type="int" >        2       20       24       30       33 </v>
   <v type="int" >        2       20       30       33       35 </v>
   <v type="int" >        2       20       30       34       35 </v>
   <v type="int" >        2       21       24       25       33 </v>
   <v type="int" >        2       20       21       24       33 </v>
   <v type="int" >        2       20       21       33       35 </v>
   <v type="int" >        2       21       25       32       33 </v>
   <v type="int" >        2       21       32       33       36 </v>
   <v type="int" >        2       21       33       35       36 </v>
   <v type="int" >        2       22       25       26       32 </v>
   <v type="int" >        2       21       22       25       32 </v>
   <v type="int" >        2       21       22       32       36 </v>
   <v type="int" >        2       22       26       31       32 </v>
   <v type="int" >        2       22       31       32       35 </v>
   <v type="int" >        2       22       32       35       36 </v>
   <v type="int" >        2       19       23       26       31 </v>
   <v type="int" >        2       19       22       26       31 </v>
   <v type="int" >        2       19       22       31       35 </v>
   <v type="int" >        2       19       23       30       31 </v>
   <v type="int" >        2       19       30       31       34 </v>
   <v type="int" >        2       19       31       34       35 </v>
   <v type="int" >        2       11       12       24       27 </v>
   <v type="int" >        2       11       23       24       27 </v>
   <v type="int" >        2       23       24       27       30 </v>
   <v type="int" >        2       12       24       27       28 </v>
   <v type="int" >        2       24       27       28       33 </v>
   <v type="int" >        2       24       27       30       33 </v>
   <v type="int" >        2       12       13       25       28 </v>
   <v type="int" >        2       12       24       25       28 </v>
   <v type="int" >        2       24       25       28       33 </v>
   <v type="int" >        2       13       25       28       29 </v>
   <v type="int" >        2       25       28       29       32 </v>
   <v type="int" >        2       25       28       32       33 </v>
   <v type="int" >        2       13       14       26       29 </v>
   <v type="int" >        2       13       25       26       29 </v>
   <v type="int" >        2       25       26       29       32 </v>
   <v type="int" >        2       14       26       28       29 </v>
   <v type="int" >        2       26       28       29       31 </v>
   <v type="int" >        2       26       29       31       32 </v>
   <v type="int" >        2       11       14       23       28 </v>
   <v type="int" >        2       14       23       26       28 </v>
   <v type="int" >        2       23       26       28       31 </v>
   <v type="int" >        2       11       23       27       28 </v>
   <v type="int" >        2       23       27       28       30 </v>
   <v type="int" >        2       23       28       30       31 </v>
  </varray>
  <i name="volumeweight">      0.00260417 </i>
 </kpoints>
 <parameters>
  <separator name="general" >
   <i type="string" name="SYSTEM">unknown system</i>
   <i type="logical" name="LCOMPAT"> F  </i>
  </separator>
  <separator name="electronic" >
   <i type="string" name="PREC">accura</i>
   <i name="ENMAX">    420.00000000</i>
   <i name="ENAUG">    628.94500000</i>
   <i name="EDIFF">      0.00002000</i>
   <i type="int" name="IALGO">    68</i>
   <i type="int" name="IWAVPR">    11</i>
   <i type="int" name="NBANDS">    48</i>
   <i name="NELECT">     76.00000000</i>
   <i type="int" name="TURBO">     0</i>
   <i type="int" name="IRESTART">     0</i>
   <i type="int" name="NREBOOT">     0</i>
   <i type="int" name="NMIN">     0</i>
   <i name="EREF">      0.00000000</i>
   <separator name="electronic smearing" >
    <i type="int" name="ISMEAR">    -5</i>
    <i name="SIGMA">      0.20000000</i>
    <i name="KSPACING">      0.50000000</i>
    <i type="logical" name="KGAMMA"> T  </i>
   </separator>
   <separator name="electronic projectors" >
    <i type="logical" name="LREAL"> T  </i>
    <v name="ROPT">     -0.00025000     -0.00025000     -0.00025000</v>
    <i type="int" name="LMAXPAW">  -100</i>
    <i type="int" name="LMAXMIX">     2</i>
    <i type="logical" name="NLSPLINE"> F  </i>
   </separator>
   <separator name="electronic startup" >
    <i type="int" name="ISTART">     0</i>
    <i type="int" name="ICHARG">     2</i>
    <i type="int" name="INIWAV">     1</i>
   </separator>
   <separator name="electronic spin" >
    <i type="int" name="ISPIN">     1</i>
    <i type="logical" name="LNONCOLLINEAR"> F  </i>
    <v name="MAGMOM">      1.00000000      1.00000000      1.00000000      1.00000000      1.00000000      1.00000000      1.00000000      1.00000000      1.00000000      1.00000000      1.00000000      1.00000000      1.00000000      1.00000000      1.00000000      1.00000000</v>
    <i name="NUPDOWN">     -1.00000000</i>
    <i type="logical" name="LSORBIT"> F  </i>
    <v name="SAXIS">      0.00000000      0.00000000      1.00000000</v>
    <i type="logical" name="LSPIRAL"> F  </i>
    <v name="QSPIRAL">      0.00000000      0.00000000      0.00000000</v>
    <i type="logical" name="LZEROZ"> F  </i>
   </separator>
   <separator name="electronic exchange-correlation" >
    <i type="logical" name="LASPH"> F  </i>
    <i type="logical" name="LMETAGGA"> F  </i>
   </separator>
   <separator name="electronic convergence" >
    <i type="int" name="NELM">   100</i>
    <i type="int" name="NELMDL">    -5</i>
    <i type="int" name="NELMIN">     2</i>
    <i name="ENINI">    420.00000000</i>
    <separator name="electronic convergence detail" >
     <i type="logical" name="LDIAG"> T  </i>
     <i type="logical" name="LSUBROT"> F  </i>
     <i name="WEIMIN">      0.00100000</i>
     <i name="EBREAK">      0.00000010</i>
     <i name="DEPER">      0.30000000</i>
     <i type="int" name="NRMM">     4</i>
     <i name="TIME">      0.40000000</i>
    </separator>
   </separator>
   <separator name="electronic mixer" >
    <i name="AMIX">      0.40000000</i>
    <i name="BMIX">      1.00000000</i>
    <i name="AMIN">      0.10000000</i>
    <i name="AMIX_MAG">      1.60000000</i>
    <i name="BMIX_MAG">      1.00000000</i>
    <separator name="electronic mixer details" >
     <i type="int" name="IMIX">     4</i>
     <i type="logical" name="MIXFIRST"> F  </i>
     <i type="int" name="MAXMIX">   -45</i>
     <i name="WC">    100.00000000</i>
     <i type="int" name="INIMIX">     1</i>
     <i type="int" name="MIXPRE">     1</i>
     <i type="int" name="MREMOVE">     5</i>
    </separator>
   </separator>
   <separator name="electronic dipolcorrection" >
    <i type="logical" name="LDIPOL"> F  </i>
    <i type="logical" name="LMONO"> F  </i>
    <i type="int" name="IDIPOL">     0</i>
    <i name="EPSILON">      1.00000000</i>
    <v name="DIPOL">   -100.00000000   -100.00000000   -100.00000000</v>
    <i name="EFIELD">      0.00000000</i>
   </separator>
  </separator>
  <separator name="grids" >
   <i type="int" name="NGX">    90</i>
   <i type="int" name="NGY">    40</i>
   <i type="int" name="NGZ">    40</i>
   <i type="int" name="NGXF">   180</i>
   <i type="int" name="NGYF">    80</i>
   <i type="int" name="NGZF">    80</i>
   <i type="logical" name="ADDGRID"> F  </i>
  </separator>
  <separator name="ionic" >
   <i type="int" name="NSW">   100</i>
   <i type="int" name="IBRION">     2</i>
   <i type="int" name="MDALGO">     0</i>
   <i type="int" name="ISIF">     3</i>
   <i name="PSTRESS">      0.00000000</i>
   <i name="EDIFFG">      0.00020000</i>
   <i type="int" name="NFREE">     1</i>
   <i name="POTIM">      0.50000000</i>
   <i name="SMASS">     -3.00000000</i>
   <i name="SCALEE">      1.00000000</i>
  </separator>
  <separator name="ionic md" >
   <i name="TEBEG">      0.00010000</i>
   <i name="TEEND">      0.00010000</i>
   <i type="int" name="NBLOCK">     1</i>
   <i type="int" name="KBLOCK">   100</i>
   <i type="int" name="NPACO">   256</i>
   <i name="APACO">     16.00000000</i>
  </separator>
  <separator name="symmetry" >
   <i type="int" name="ISYM">     2</i>
   <i name="SYMPREC">      0.00001000</i>
  </separator>
  <separator name="dos" >
   <i type="int" name="LORBIT">     0</i>
   <v name="RWIGS">     -1.00000000     -1.00000000     -1.00000000</v>
   <i type="int" name="NEDOS">   301</i>
   <i name="EMIN">     10.00000000</i>
   <i name="EMAX">    -10.00000000</i>
   <i name="EFERMI">      0.00000000</i>
  </separator>
  <separator name="writing" >
   <i type="int" name="NWRITE">     2</i>
   <i type="logical" name="LWAVE"> F  </i>
   <i type="logical" name="LDOWNSAMPLE"> F  </i>
   <i type="logical" name="LCHARG"> F  </i>
   <i type="logical" name="LPARD"> F  </i>
   <i type="logical" name="LVTOT"> F  </i>
   <i type="logical" name="LVHAR"> F  </i>
   <i type="logical" name="LELF"> F  </i>
   <i type="logical" name="LOPTICS"> F  </i>
   <v name="STM">      0.00000000      0.00000000      0.00000000      0.00000000      0.00000000      0.00000000      0.00000000</v>
  </separator>
  <separator name="performance" >
   <i type="int" name="NPAR">     4</i>
   <i type="int" name="NSIM">     4</i>
   <i type="int" name="NBLK">    -1</i>
   <i type="logical" name="LPLANE"> T  </i>
   <i type="logical" name="LSCALAPACK"> T  </i>
   <i type="logical" name="LSCAAWARE"> F  </i>
   <i type="logical" name="LSCALU"> F  </i>
   <i type="logical" name="LASYNC"> F  </i>
   <i type="logical" name="LORBITALREAL"> F  </i>
  </separator>
  <separator name="miscellaneous" >
   <i type="int" name="IDIOT">     3</i>
   <i type="int" name="ISPECIAL">     0</i>
   <i type="logical" name="LMUSIC"> F  </i>
   <v name="POMASS">     30.97400000     32.06600000      7.01000000</v>
   <v name="DARWINR">      0.00000000      0.00000000      0.00000000</v>
   <v name="DARWINV">      1.00000000      1.00000000      1.00000000</v>
   <i type="logical" name="LCORR"> T  </i>
  </separator>
  <i type="logical" name="GGA_COMPAT"> T  </i>
  <i type="logical" name="LBERRY"> F  </i>
  <i type="int" name="ICORELEVEL">     0</i>
  <i type="logical" name="LDAU"> F  </i>
  <i type="int" name="I_CONSTRAINED_M">     0</i>
  <separator name="electronic exchange-correlation" >
   <i type="string" name="GGA">--</i>
   <i type="int" name="VOSKOWN">     0</i>
   <i type="logical" name="LHFCALC"> F  </i>
   <i type="string" name="PRECFOCK"></i>
   <i type="logical" name="LSYMGRAD"> F  </i>
   <i type="logical" name="LHFONE"> F  </i>
   <i type="logical" name="LRHFCALC"> F  </i>
   <i type="logical" name="LTHOMAS"> F  </i>
   <i type="logical" name="LMODELHF"> F  </i>
   <i name="ENCUT4O">     -1.00000000</i>
   <i type="int" name="EXXOEP">     0</i>
   <i type="int" name="FOURORBIT">     0</i>
   <i name="AEXX">      0.00000000</i>
   <i name="HFALPHA">      0.00000000</i>
   <i name="MCALPHA">      0.00000000</i>
   <i name="ALDAX">      1.00000000</i>
   <i name="AGGAX">      1.00000000</i>
   <i name="ALDAC">      1.00000000</i>
   <i name="AGGAC">      1.00000000</i>
   <i type="int" name="NKREDX">     1</i>
   <i type="int" name="NKREDY">     1</i>
   <i type="int" name="NKREDZ">     1</i>
   <i type="logical" name="SHIFTRED"> F  </i>
   <i type="logical" name="ODDONLY"> F  </i>
   <i type="logical" name="EVENONLY"> F  </i>
   <i type="int" name="LMAXFOCK">     0</i>
   <i type="int" name="NMAXFOCKAE">     0</i>
   <i type="logical" name="LFOCKAEDFT"> F  </i>
   <i name="HFSCREEN">      0.00000000</i>
   <i name="HFSCREENC">      0.00000000</i>
   <i type="int" name="NBANDSGWLOW">     0</i>
  </separator>
  <separator name="vdW DFT" >
   <i type="logical" name="LUSE_VDW"> F  </i>
   <i name="Zab_VDW">     -0.84910000</i>
   <i name="PARAM1">      0.12340000</i>
   <i name="PARAM2">      1.00000000</i>
   <i name="PARAM3">      0.00000000</i>
  </separator>
  <separator name="model GW" >
   <i type="int" name="MODEL_GW">     0</i>
   <i name="MODEL_EPS0">      9.81981126</i>
   <i name="MODEL_ALPHA">      1.00000000</i>
  </separator>
  <separator name="linear response parameters" >
   <i type="logical" name="LEPSILON"> F  </i>
   <i type="logical" name="LRPA"> F  </i>
   <i type="logical" name="LNABLA"> F  </i>
   <i type="logical" name="LVEL"> F  </i>
   <i type="int" name="KINTER">     0</i>
   <i name="CSHIFT">      0.10000000</i>
   <i name="OMEGAMAX">     -1.00000000</i>
   <i name="DEG_THRESHOLD">      0.00200000</i>
   <i name="RTIME">     -0.10000000</i>
   <i name="WPLASMAI">      0.00000000</i>
   <v name="DFIELD">      0.00000000      0.00000000      0.00000000</v>
   <v name="WPLASMA">      0.00000000      0.00000000      0.00000000      0.00000000      0.00000000      0.00000000      0.00000000      0.00000000      0.00000000</v>
  </separator>
  <separator name="orbital magnetization" >
   <i type="logical" name="NUCIND"> F  </i>
   <v name="MAGPOS">      0.00000000      0.00000000      0.00000000</v>
   <i type="logical" name="LNICSALL"> T  </i>
   <i type="logical" name="ORBITALMAG"> F  </i>
   <i type="logical" name="LMAGBLOCH"> F  </i>
   <i type="logical" name="LCHIMAG"> F  </i>
   <i type="logical" name="LGAUGE"> T  </i>
   <i type="int" name="MAGATOM">     0</i>
   <v name="MAGDIPOL">      0.00000000      0.00000000      0.00000000</v>
   <v name="AVECCONST">      0.00000000      0.00000000      0.00000000</v>
  </separator>
  <separator name="response functions" >
   <i type="logical" name="LADDER"> F  </i>
   <i type="logical" name="LRPAFORCE"> F  </i>
   <i type="logical" name="LFXC"> F  </i>
   <i type="logical" name="LHARTREE"> T  </i>
   <i type="int" name="IBSE">     0</i>
   <v type="int" name="KPOINT">    -1     0     0     0</v>
   <i type="logical" name="LTCTE"> F  </i>
   <i type="logical" name="LTETE"> F  </i>
   <i type="logical" name="LTRIPLET"> F  </i>
   <i type="logical" name="LFXCEPS"> F  </i>
   <i type="logical" name="LFXHEG"> F  </i>
   <i type="int" name="NATURALO">     2</i>
   <i type="logical" name="L2ORDER"> F  </i>
   <i type="logical" name="LMP2LT"> F  </i>
   <i type="logical" name="LUSEW"> F  </i>
   <i name="ENCUTGW">     -2.00000000</i>
   <i name="ENCUTGWSOFT">     -2.00000000</i>
   <i name="ENCUTLF">     -1.00000000</i>
   <i type="int" name="LMAXMP2">    -1</i>
   <i name="SCISSOR">      0.00000000</i>
   <i type="int" name="NOMEGA">     0</i>
   <i type="int" name="NOMEGAR">     0</i>
   <i type="int" name="NBANDSGW">    -1</i>
   <i type="int" name="NBANDSO">    -1</i>
   <i type="int" name="NBANDSV">    -1</i>
   <i type="int" name="NELM">   100</i>
   <i type="int" name="NELMHF">     1</i>
   <i type="int" name="DIM">     3</i>
   <i type="int" name="ANTIRES">     0</i>
   <i name="OMEGAMAX">    -30.00000000</i>
   <i name="OMEGAMIN">    -30.00000000</i>
   <i name="OMEGATL">   -200.00000000</i>
   <i type="int" name="OMEGAGRID">   140</i>
   <i name="CSHIFT">     -0.10000000</i>
   <i type="logical" name="SELFENERGY"> F  </i>
   <i type="logical" name="LSPECTRAL"> F  </i>
   <i type="logical" name="LSPECTRALGW"> F  </i>
   <i type="logical" name="LSINGLES"> F  </i>
   <i type="logical" name="LFERMIGW"> F  </i>
   <i type="logical" name="ODDONLYGW"> F  </i>
   <i type="logical" name="EVENONLYGW"> F  </i>
   <i type="int" name="NKREDLFX">     1</i>
   <i type="int" name="NKREDLFY">     1</i>
   <i type="int" name="NKREDLFZ">     1</i>
   <i type="int" name="MAXMEM">  2800</i>
   <i type="int" name="TELESCOPE">     0</i>
   <i type="int" name="TAUPAR">     1</i>
   <i type="int" name="OMEGAPAR">    -1</i>
   <i name="LAMBDA">      1.00000000</i>
  </separator>
  <separator name="External order field" >
   <i name="OFIELD_KAPPA">      0.00000000</i>
   <v name="OFIELD_K">      0.00000000      0.00000000      0.00000000</v>
   <i name="OFIELD_Q6_NEAR">      0.00000000</i>
   <i name="OFIELD_Q6_FAR">      0.00000000</i>
   <i name="OFIELD_A">      0.00000000</i>
  </separator>
 </parameters>
 <atominfo>
  <atoms>      16 </atoms>
  <types>       3 </types>
  <array name="atoms" >
   <dimension dim="1">ion</dimension>
   <field type="string">element</field>
   <field type="int">atomtype</field>
   <set>
    <rc><c>P </c><c>   1</c></rc>
    <rc><c>P </c><c>   1</c></rc>
    <rc><c>S </c><c>   2</c></rc>
    <rc><c>S </c><c>   2</c></rc>
    <rc><c>S </c><c>   2</c></rc>
    <rc><c>S </c><c>   2</c></rc>
    <rc><c>S </c><c>   2</c></rc>
    <rc><c>S </c><c>   2</c></rc>
    <rc><c>S </c><c>   2</c></rc>
    <rc><c>S </c><c>   2</c></rc>
    <rc><c>Li</c><c>   3</c></rc>
    <rc><c>Li</c><c>   3</c></rc>
    <rc><c>Li</c><c>   3</c></rc>
    <rc><c>Li</c><c>   3</c></rc>
    <rc><c>Li</c><c>   3</c></rc>
    <rc><c>Li</c><c>   3</c></rc>
   </set>
  </array>
  <array name="atomtypes" >
   <dimension dim="1">type</dimension>
   <field type="int">atomspertype</field>
   <field type="string">element</field>
   <field>mass</field>
   <field>valence</field>
   <field type="string">pseudopotential</field>
   <set>
    <rc><c>   2</c><c>P </c><c>     30.97400000</c><c>      5.00000000</c><c>  PAW P 26Mar2009                       </c></rc>
    <rc><c>   8</c><c>S </c><c>     32.06600000</c><c>      6.00000000</c><c>  PAW S 27Mar2009                       </c></rc>
    <rc><c>   6</c><c>Li</c><c>      7.01000000</c><c>      3.00000000</c><c>  PAW Li_sv 10Sep2004                   </c></rc>
   </set>
  </array>
 </atominfo>
 <structure name="initialpos" >
  <crystal>
   <varray name="basis" >
    <v>      12.60936945      -2.77113267      -0.52563695 </v>
    <v>      -2.95901687       4.88253190       1.34400094 </v>
    <v>      -0.68217104       1.63577401       5.36390033 </v>
   </varray>
   <i name="volume">    261.86163370 </i>
   <varray name="rec_basis" >
    <v>       0.09161683       0.05711044      -0.00576473 </v>
    <v>       0.05347960       0.25691746      -0.07154806 </v>
    <v>      -0.00442205      -0.05877774       0.20379396 </v>
   </varray>
  </crystal>
  <varray name="positions" >
   <v>       0.21231104       0.97598768       0.89582129 </v>
   <v>       0.71201766       0.12781317       0.39697003 </v>
   <v>       0.17242955       0.27586192       0.57170256 </v>
   <v>       0.39018480       0.10005858       0.77568902 </v>
   <v>       0.03619808       0.44519375       0.01623809 </v>
   <v>       0.25051768       0.07361878       0.21755324 </v>
   <v>       0.75103579       0.82502376       0.71929911 </v>
   <v>       0.53546843       0.00841694       0.51765584 </v>
   <v>       0.67263098       0.03213948       0.07345668 </v>
   <v>       0.88933145       0.65774485       0.27607961 </v>
   <v>       0.51043686       0.42548855       0.03226389 </v>
   <v>       0.41365485       0.69280573       0.25461073 </v>
   <v>       0.21490003       0.47708572       0.88825768 </v>
   <v>       0.91351647       0.65795705       0.75761397 </v>
   <v>       0.01048861       0.43957526       0.53337091 </v>
   <v>       0.71295868       0.63714606       0.39426051 </v>
  </varray>
 </structure>
 <calculation>
  <scstep>
   <time name="dav">    0.98    1.01</time>
   <time name="total">    1.01    1.07</time>
   <energy>
    <i name="alphaZ">     75.35643131 </i>
    <i name="ewald">  -2905.26736577 </i>
    <i name="hartreedc">   -530.14783255 </i>
    <i name="XCdc">    182.90859415 </i>
    <i name="pawpsdc">   2494.22442938 </i>
    <i name="pawaedc">  -2541.12215007 </i>
    <i name="eentropy">      0.00000000 </i>
    <i name="bandstr">    -51.66369447 </i>
    <i name="atom">   3769.08782378 </i>
    <i name="e_fr_energy">    493.37623576 </i>
    <i name="e_wo_entrp">    493.37623576 </i>
    <i name="e_0_energy">    493.37623576 </i>
   </energy>
  </scstep>
  <scstep>
   <time name="dav">    1.05    1.06</time>
   <time name="total">    1.06    1.06</time>
   <energy>
    <i name="e_fr_energy">    -11.99501848 </i>
    <i name="e_wo_entrp">    -11.99501848 </i>
    <i name="e_0_energy">    -11.99501848 </i>
   </energy>
  </scstep>
  <scstep>
   <time name="dav">    1.16    1.16</time>
   <time name="total">    1.16    1.16</time>
   <energy>
    <i name="e_fr_energy">    -72.57096210 </i>
    <i name="e_wo_entrp">    -72.57096210 </i>
    <i name="e_0_energy">    -72.57096210 </i>
   </energy>
  </scstep>
  <scstep>
   <time name="dav">    1.43    1.43</time>
   <time name="total">    1.43    1.43</time>
   <energy>
    <i name="e_fr_energy">    -78.51971014 </i>
    <i name="e_wo_entrp">    -78.51971014 </i>
    <i name="e_0_energy">    -78.51971014 </i>
   </energy>
  </scstep>
  <scstep>
   <time name="dav">    1.22    1.22</time>
   <time name="total">    1.27    1.27</time>
   <energy>
    <i name="e_fr_energy">    -79.11500064 </i>
    <i name="e_wo_entrp">    -79.11500064 </i>
    <i name="e_0_energy">    -79.11500064 </i>
   </energy>
  </scstep>
  <scstep>
   <time name="diag">    0.25    0.25</time>
   <time name="diis">    0.49    0.49</time>
   <time name="orth">    0.03    0.03</time>
   <time name="total">    0.82    0.83</time>
   <energy>
    <i name="e_fr_energy">    -77.50225825 </i>
    <i name="e_wo_entrp">    -77.50225825 </i>
    <i name="e_0_energy">    -77.50225825 </i>
   </energy>
  </scstep>
  <scstep>
   <time name="diag">    0.24    0.24</time>
   <time name="diis">    0.52    0.52</time>
   <time name="orth">    0.03    0.03</time>
   <time name="total">    0.85    0.85</time>
   <energy>
    <i name="e_fr_energy">    -77.19860978 </i>
    <i name="e_wo_entrp">    -77.19860978 </i>
    <i name="e_0_energy">    -77.19860978 </i>
   </energy>
  </scstep>
  <scstep>
   <time name="diag">    0.25    0.25</time>
   <time name="diis">    0.56    0.56</time>
   <time name="orth">    0.03    0.03</time>
   <time name="total">    0.89    0.89</time>
   <energy>
    <i name="e_fr_energy">    -77.10070080 </i>
    <i name="e_wo_entrp">    -77.10070080 </i>
    <i name="e_0_energy">    -77.10070080 </i>
   </energy>
  </scstep>
  <scstep>
   <time name="diag">    0.25    0.25</time>
   <time name="diis">    0.55    0.55</time>
   <time name="orth">    0.03    0.03</time>
   <time name="total">    0.88    0.88</time>
   <energy>
    <i name="e_fr_energy">    -77.09461313 </i>
    <i name="e_wo_entrp">    -77.09461313 </i>
    <i name="e_0_energy">    -77.09461313 </i>
   </energy>
  </scstep>
  <scstep>
   <time name="diag">    0.25    0.25</time>
   <time name="diis">    0.64    0.64</time>
   <time name="orth">    0.03    0.03</time>
   <time name="total">    0.97    0.97</time>
   <energy>
    <i name="e_fr_energy">    -77.09456540 </i>
    <i name="e_wo_entrp">    -77.09456540 </i>
    <i name="e_0_energy">    -77.09456540 </i>
   </energy>
  </scstep>
  <scstep>
   <time name="diag">    0.25    0.25</time>
   <time name="diis">    0.65    0.65</time>
   <time name="orth">    0.03    0.03</time>
   <time name="total">    0.98    0.98</time>
   <energy>
    <i name="e_fr_energy">    -77.09461622 </i>
    <i name="e_wo_entrp">    -77.09461622 </i>
    <i name="e_0_energy">    -77.09461622 </i>
   </energy>
  </scstep>
  <scstep>
   <time name="diag">    0.24    0.24</time>
   <time name="diis">    0.63    0.63</time>
   <time name="orth">    0.03    0.03</time>
   <time name="total">    0.96    0.96</time>
   <energy>
    <i name="e_fr_energy">    -77.09478836 </i>
    <i name="e_wo_entrp">    -77.09478836 </i>
    <i name="e_0_energy">    -77.09478836 </i>
   </energy>
  </scstep>
  <scstep>
   <time name="diag">    0.24    0.24</time>
   <time name="diis">    0.41    0.41</time>
   <time name="orth">    0.03    0.03</time>
   <time name="total">    0.74    0.74</time>
   <energy>
    <i name="e_fr_energy">    -77.09484760 </i>
    <i name="e_wo_entrp">    -77.09484760 </i>
    <i name="e_0_energy">    -77.09484760 </i>
   </energy>
  </scstep>
  <scstep>
   <time name="diag">    0.25    0.25</time>
   <time name="diis">    0.53    0.53</time>
   <time name="orth">    0.03    0.03</time>
   <time name="total">    0.86    0.86</time>
   <energy>
    <i name="e_fr_energy">    -77.09487617 </i>
    <i name="e_wo_entrp">    -77.09487617 </i>
    <i name="e_0_energy">    -77.09487617 </i>
   </energy>
  </scstep>
  <scstep>
   <time name="diag">    0.24    0.24</time>
   <time name="diis">    0.32    0.32</time>
   <time name="orth">    0.03    0.03</time>
   <time name="total">    0.60    0.60</time>
   <energy>
    <i name="alphaZ">     75.35643131 </i>
    <i name="ewald">  -2905.26736577 </i>
    <i name="hartreedc">   -548.47168033 </i>
    <i name="XCdc">    185.51698701 </i>
    <i name="pawpsdc">   7464.52736304 </i>
    <i name="pawaedc">  -7515.00873111 </i>
    <i name="eentropy">      0.00000000 </i>
    <i name="bandstr">   -602.83571344 </i>
    <i name="atom">   3769.08782378 </i>
    <i name="e_fr_energy">    -77.09488552 </i>
    <i name="e_wo_entrp">    -77.09488552 </i>
    <i name="e_0_energy">    -77.09488552 </i>
   </energy>
  </scstep>
  <structure>
   <crystal>
    <varray name="basis" >
     <v>      12.60936945      -2.77113267      -0.52563695 </v>
     <v>      -2.95901687       4.88253190       1.34400094 </v>
     <v>      -0.68217104       1.63577401       5.36390033 </v>
    </varray>
    <i name="volume">    261.86163370 </i>
    <varray name="rec_basis" >
     <v>       0.09161683       0.05711044      -0.00576473 </v>
     <v>       0.05347960       0.25691746      -0.07154806 </v>
     <v>      -0.00442205      -0.05877774       0.20379396 </v>
    </varray>
   </crystal>
   <varray name="positions" >
    <v>       0.21231104       0.97598768       0.89582129 </v>
    <v>       0.71201766       0.12781317       0.39697003 </v>
    <v>       0.17242955       0.27586192       0.57170256 </v>
    <v>       0.39018480       0.10005858       0.77568902 </v>
    <v>       0.03619808       0.44519375       0.01623809 </v>
    <v>       0.25051768       0.07361878       0.21755324 </v>
    <v>       0.75103579       0.82502376       0.71929911 </v>
    <v>       0.53546843       0.00841694       0.51765584 </v>
    <v>       0.67263098       0.03213948       0.07345668 </v>
    <v>       0.88933145       0.65774485       0.27607961 </v>
    <v>       0.51043686       0.42548855       0.03226389 </v>
    <v>       0.41365485       0.69280573       0.25461073 </v>
    <v>       0.21490003       0.47708572       0.88825768 </v>
    <v>       0.91351647       0.65795705       0.75761397 </v>
    <v>       0.01048861       0.43957526       0.53337091 </v>
    <v>       0.71295868       0.63714606       0.39426051 </v>
   </varray>
  </structure>
  <varray name="forces" >
   <v>      -0.01005807      -0.00336478      -0.00004564 </v>
   <v>       0.00986700       0.00555136      -0.00253392 </v>
   <v>       0.00213898       0.00152072       0.00314233 </v>
   <v>       0.00557030      -0.00199160      -0.00374989 </v>
   <v>      -0.00077926       0.00593220      -0.00064340 </v>
   <v>       0.00357496      -0.00108464       0.00063115 </v>
   <v>      -0.00274054       0.00357962      -0.00226648 </v>
   <v>      -0.00672545       0.00046460      -0.00050654 </v>
   <v>       0.00053862      -0.00005663      -0.00157893 </v>
   <v>      -0.00335851      -0.00316694      -0.00162120 </v>
   <v>       0.00437917      -0.00533462       0.00009734 </v>
   <v>       0.00406578      -0.00600648       0.00189588 </v>
   <v>      -0.00367513      -0.00440006       0.00716161 </v>
   <v>      -0.00089137       0.00379967      -0.00135720 </v>
   <v>      -0.00174970       0.00324789       0.00085845 </v>
   <v>      -0.00015678       0.00130969       0.00051643 </v>
  </varray>
  <varray name="stress" >
   <v>       0.13392052      -0.03964223      -0.07141665 </v>
   <v>      -0.03964262      -0.11568683       0.03135465 </v>
   <v>      -0.07141643       0.03135483      -0.00662902 </v>
  </varray>
  <energy>
   <i name="e_fr_energy">    -77.09488552 </i>
   <i name="e_wo_entrp">    -77.09488552 </i>
   <i name="e_0_energy">      0.00000000 </i>
  </energy>
  <time name="totalsc">   15.46   15.55</time>
 </calculation>
 <calculation>
  <scstep>
   <time name="dav">    1.02    1.02</time>
   <time name="total">    1.07    1.07</time>
   <energy>
    <i name="alphaZ">     75.35600079 </i>
    <i name="ewald">  -2905.25593222 </i>
    <i name="hartreedc">   -548.47493833 </i>
    <i name="XCdc">    185.51675684 </i>
    <i name="pawpsdc">   7464.53103622 </i>
    <i name="pawaedc">  -7515.01244077 </i>
    <i name="eentropy">      0.00000000 </i>
    <i name="bandstr">   -602.84321904 </i>
    <i name="atom">   3769.08782378 </i>
    <i name="e_fr_energy">    -77.09491274 </i>
    <i name="e_wo_entrp">    -77.09491274 </i>
    <i name="e_0_energy">    -77.09491274 </i>
   </energy>
  </scstep>
  <scstep>
   <time name="diag">    0.25    0.25</time>
   <time name="diis">    0.57    0.57</time>
   <time name="orth">    0.03    0.03</time>
   <time name="total">    0.90    0.90</time>
   <energy>
    <i name="e_fr_energy">    -77.09493209 </i>
    <i name="e_wo_entrp">    -77.09493209 </i>
    <i name="e_0_energy">    -77.09493209 </i>
   </energy>
  </scstep>
  <scstep>
   <time name="diag">    0.26    0.26</time>
   <time name="diis">    0.28    0.28</time>
   <time name="orth">    0.03    0.03</time>
   <time name="total">    0.58    0.58</time>
   <energy>
    <i name="alphaZ">     75.35600079 </i>
    <i name="ewald">  -2905.25593222 </i>
    <i name="hartreedc">   -548.48887092 </i>
    <i name="XCdc">    185.51819706 </i>
    <i name="pawpsdc">   7465.03287651 </i>
    <i name="pawaedc">  -7515.50825444 </i>
    <i name="eentropy">      0.00000000 </i>
    <i name="bandstr">   -602.83676822 </i>
    <i name="atom">   3769.08782378 </i>
    <i name="e_fr_energy">    -77.09492765 </i>
    <i name="e_wo_entrp">    -77.09492765 </i>
    <i name="e_0_energy">    -77.09492765 </i>
   </energy>
  </scstep>
  <structure>
   <crystal>
    <varray name="basis" >
     <v>      12.61027426      -2.77122914      -0.52612183 </v>
     <v>      -2.95935484       4.88233212       1.34417614 </v>
     <v>      -0.68243679       1.63577696       5.36393209 </v>
    </varray>
    <i name="volume">    261.86312976 </i>
    <varray name="rec_basis" >
     <v>       0.09161170       0.05711557      -0.00576240 </v>
     <v>       0.05347857       0.25693426      -0.07155038 </v>
     <v>      -0.00441574      -0.05878433       0.20379538 </v>
    </varray>
   </crystal>
   <varray name="positions" >
    <v>       0.21225733       0.97592018       0.89583253 </v>
    <v>       0.71207727       0.12791618       0.39692727 </v>
    <v>       0.17244232       0.27587544       0.57172869 </v>
    <v>       0.39020498       0.10006121       0.77565661 </v>
    <v>       0.03621116       0.44526748       0.01621511 </v>
    <v>       0.25053032       0.07361239       0.21756176 </v>
    <v>       0.75103417       0.82506888       0.71926726 </v>
    <v>       0.53544013       0.00840710       0.51765098 </v>
    <v>       0.67263364       0.03214562       0.07344120 </v>
    <v>       0.88930834       0.65770253       0.27607337 </v>
    <v>       0.51044149       0.42543339       0.03227904 </v>
    <v>       0.41365574       0.69273523       0.25464554 </v>
    <v>       0.21486967       0.47699698       0.88834135 </v>
    <v>       0.91352338       0.65800653       0.75759004 </v>
    <v>       0.01048959       0.43960804       0.53337052 </v>
    <v>       0.71296145       0.63716011       0.39426191 </v>
   </varray>
  </structure>
  <varray name="forces" >
   <v>       0.00783835       0.00346004      -0.00136244 </v>
   <v>      -0.00854323      -0.00221641      -0.00099833 </v>
   <v>       0.00029034       0.00382724       0.00045955 </v>
   <v>      -0.00392750      -0.00119062       0.00135805 </v>
   <v>      -0.00084095      -0.00213887      -0.00184105 </v>
   <v>       0.00236914       0.00001556       0.00003459 </v>
   <v>      -0.00103921      -0.00032230      -0.00115216 </v>
   <v>       0.00262408       0.00142324      -0.00475669 </v>
   <v>      -0.00075082       0.00006340      -0.00035905 </v>
   <v>      -0.00091129       0.00470721       0.00000617 </v>
   <v>       0.00397220      -0.00531698      -0.00009825 </v>
   <v>       0.00443402      -0.00487162       0.00179070 </v>
   <v>      -0.00239503      -0.00286918       0.00692033 </v>
   <v>      -0.00074581       0.00256700      -0.00086247 </v>
   <v>      -0.00083639       0.00279843       0.00047120 </v>
   <v>      -0.00153790       0.00006387       0.00038986 </v>
  </varray>
  <varray name="stress" >
   <v>      -0.04694949      -0.02204910      -0.02756732 </v>
   <v>      -0.02204924      -0.13816360       0.00800942 </v>
   <v>      -0.02756745       0.00800946      -0.07631304 </v>
  </varray>
  <energy>
   <i name="e_fr_energy">    -77.09492765 </i>
   <i name="e_wo_entrp">    -77.09492765 </i>
   <i name="e_0_energy">      0.00000000 </i>
  </energy>
  <time name="totalsc">    3.53    3.55</time>
 </calculation>
 <calculation>
  <scstep>
   <time name="dav">    1.07    1.07</time>
   <time name="total">    1.13    1.13</time>
   <energy>
    <i name="alphaZ">     75.35600509 </i>
    <i name="ewald">  -2905.25604811 </i>
    <i name="hartreedc">   -548.49693926 </i>
    <i name="XCdc">    185.51901064 </i>
    <i name="pawpsdc">   7465.27760727 </i>
    <i name="pawaedc">  -7515.74905879 </i>
    <i name="eentropy">      0.00000000 </i>
    <i name="bandstr">   -602.83333669 </i>
    <i name="atom">   3769.08782378 </i>
    <i name="e_fr_energy">    -77.09493606 </i>
    <i name="e_wo_entrp">    -77.09493606 </i>
    <i name="e_0_energy">    -77.09493606 </i>
   </energy>
  </scstep>
  <scstep>
   <time name="diag">    0.24    0.24</time>
   <time name="diis">    0.24    0.24</time>
   <time name="orth">    0.03    0.03</time>
   <time name="total">    0.53    0.53</time>
   <energy>
    <i name="alphaZ">     75.35600509 </i>
    <i name="ewald">  -2905.25604811 </i>
    <i name="hartreedc">   -548.49589987 </i>
    <i name="XCdc">    185.51897781 </i>
    <i name="pawpsdc">   7465.43903565 </i>
    <i name="pawaedc">  -7515.90922213 </i>
    <i name="eentropy">      0.00000000 </i>
    <i name="bandstr">   -602.83560825 </i>
    <i name="atom">   3769.08782378 </i>
    <i name="e_fr_energy">    -77.09493602 </i>
    <i name="e_wo_entrp">    -77.09493602 </i>
    <i name="e_0_energy">    -77.09493602 </i>
   </energy>
  </scstep>
  <structure>
   <crystal>
    <varray name="basis" >
     <v>      12.61026521      -2.77122818      -0.52611698 </v>
     <v>      -2.95935146       4.88233412       1.34417438 </v>
     <v>      -0.68243413       1.63577693       5.36393177 </v>
    </varray>
    <i name="volume">    261.86311480 </i>
    <varray name="rec_basis" >
     <v>       0.09161175       0.05711552      -0.00576243 </v>
     <v>       0.05347858       0.25693409      -0.07155036 </v>
     <v>      -0.00441580      -0.05878426       0.20379537 </v>
    </varray>
   </crystal>
   <varray name="positions" >
    <v>       0.21225787       0.97592086       0.89583241 </v>
    <v>       0.71207668       0.12791515       0.39692770 </v>
    <v>       0.17244219       0.27587531       0.57172843 </v>
    <v>       0.39020478       0.10006119       0.77565694 </v>
    <v>       0.03621103       0.44526675       0.01621534 </v>
    <v>       0.25053019       0.07361245       0.21756167 </v>
    <v>       0.75103419       0.82506843       0.71926758 </v>
    <v>       0.53544041       0.00840720       0.51765103 </v>
    <v>       0.67263361       0.03214556       0.07344135 </v>
    <v>       0.88930857       0.65770295       0.27607343 </v>
    <v>       0.51044144       0.42543394       0.03227889 </v>
    <v>       0.41365573       0.69273593       0.25464519 </v>
    <v>       0.21486997       0.47699787       0.88834051 </v>
    <v>       0.91352331       0.65800604       0.75759028 </v>
    <v>       0.01048958       0.43960771       0.53337052 </v>
    <v>       0.71296143       0.63715997       0.39426190 </v>
   </varray>
  </structure>
  <varray name="forces" >
   <v>       0.01007016       0.00369502      -0.00080082 </v>
   <v>      -0.01099594      -0.00256467      -0.00144053 </v>
   <v>      -0.00265030       0.00418230       0.00038709 </v>
   <v>      -0.00863695      -0.00364950       0.00153838 </v>
   <v>      -0.00461352      -0.00458264      -0.00166005 </v>
   <v>       0.00197497      -0.00260637       0.00007210 </v>
   <v>       0.00212610       0.00111727       0.00029241 </v>
   <v>       0.00776146       0.00181016      -0.00573167 </v>
   <v>       0.00217510       0.00139586      -0.00106813 </v>
   <v>       0.00094077       0.00802836      -0.00063834 </v>
   <v>       0.00391778      -0.00573876      -0.00015232 </v>
   <v>       0.00457635      -0.00561855       0.00204891 </v>
   <v>      -0.00328049      -0.00364307       0.00718185 </v>
   <v>      -0.00115466       0.00390069      -0.00122540 </v>
   <v>      -0.00167486       0.00364970       0.00076960 </v>
   <v>      -0.00053597       0.00062421       0.00042691 </v>
  </varray>
  <varray name="stress" >
   <v>      -0.29740187       0.02108193       0.09553407 </v>
   <v>       0.02108182      -0.00301745      -0.04611607 </v>
   <v>       0.09553427      -0.04611585      -0.12626980 </v>
  </varray>
  <energy>
   <i name="e_fr_energy">    -77.09493602 </i>
   <i name="e_wo_entrp">    -77.09493602 </i>
   <i name="e_0_energy">      0.00000000 </i>
  </energy>
  <time name="totalsc">    2.52    2.55</time>
  <eigenvalues>
   <array>
    <dimension dim="1">band</dimension>
    <dimension dim="2">kpoint</dimension>
    <dimension dim="3">spin</dimension>
    <field>eigene</field>
    <field>occ</field>
    <set>
     <set comment="spin 1">
      <set comment="kpoint 1">
       <r>  -40.4914    1.0000 </r>
       <r>  -40.4852    1.0000 </r>
       <r>  -40.4749    1.0000 </r>
       <r>  -40.4694    1.0000 </r>
       <r>  -40.1255    1.0000 </r>
       <r>  -40.1239    1.0000 </r>
       <r>  -11.7912    1.0000 </r>
       <r>  -11.5780    1.0000 </r>
       <r>   -8.9100    1.0000 </r>
       <r>   -8.4679    1.0000 </r>
       <r>   -8.4491    1.0000 </r>
       <r>   -8.4237    1.0000 </r>
       <r>   -8.2093    1.0000 </r>
       <r>   -7.9580    1.0000 </r>
       <r>   -4.8418    1.0000 </r>
       <r>   -4.0337    1.0000 </r>
       <r>   -1.9322    1.0000 </r>
       <r>   -1.7065    1.0000 </r>
       <r>   -1.7031    1.0000 </r>
       <r>   -1.5508    1.0000 </r>
       <r>   -1.2112    1.0000 </r>
       <r>   -1.0003    1.0000 </r>
       <r>    0.7526    1.0000 </r>
       <r>    0.8551    1.0000 </r>
       <r>    1.0994    1.0000 </r>
       <r>    1.1128    1.0000 </r>
       <r>    1.3887    1.0000 </r>
       <r>    1.5362    1.0000 </r>
       <r>    1.5781    1.0000 </r>
       <r>    1.6023    1.0000 </r>
       <r>    2.0167    1.0000 </r>
       <r>    2.4179    1.0000 </r>
       <r>    2.4664    1.0000 </r>
       <r>    2.5824    1.0000 </r>
       <r>    2.8306    1.0000 </r>
       <r>    2.8649    1.0000 </r>
       <r>    3.2243    1.0000 </r>
       <r>    3.2397    1.0000 </r>
       <r>    6.7771    0.0000 </r>
       <r>    7.0242    0.0000 </r>
       <r>    7.1355    0.0000 </r>
       <r>    7.4184    0.0000 </r>
       <r>    8.1455    0.0000 </r>
       <r>    8.3286    0.0000 </r>
       <r>    8.3637    0.0000 </r>
       <r>    9.1845    0.0000 </r>
       <r>    9.2419    0.0000 </r>
       <r>    9.7555    0.0000 </r>
      </set>
      <set comment="kpoint 2">
       <r>  -40.4914    1.0000 </r>
       <r>  -40.4852    1.0000 </r>
       <r>  -40.4749    1.0000 </r>
       <r>  -40.4694    1.0000 </r>
       <r>  -40.1254    1.0000 </r>
       <r>  -40.1239    1.0000 </r>
       <r>  -11.7632    1.0000 </r>
       <r>  -11.6130    1.0000 </r>
       <r>   -8.8355    1.0000 </r>
       <r>   -8.5126    1.0000 </r>
       <r>   -8.4604    1.0000 </r>
       <r>   -8.4230    1.0000 </r>
       <r>   -8.1840    1.0000 </r>
       <r>   -8.0113    1.0000 </r>
       <r>   -4.7272    1.0000 </r>
       <r>   -4.1604    1.0000 </r>
       <r>   -1.9041    1.0000 </r>
       <r>   -1.7483    1.0000 </r>
       <r>   -1.6731    1.0000 </r>
       <r>   -1.4875    1.0000 </r>
       <r>   -1.3028    1.0000 </r>
       <r>   -1.0526    1.0000 </r>
       <r>    0.9291    1.0000 </r>
       <r>    0.9482    1.0000 </r>
       <r>    1.2148    1.0000 </r>
       <r>    1.2590    1.0000 </r>
       <r>    1.3916    1.0000 </r>
       <r>    1.4702    1.0000 </r>
       <r>    1.5901    1.0000 </r>
       <r>    1.6769    1.0000 </r>
       <r>    1.8555    1.0000 </r>
       <r>    2.2749    1.0000 </r>
       <r>    2.3923    1.0000 </r>
       <r>    2.4662    1.0000 </r>
       <r>    2.7810    1.0000 </r>
       <r>    2.7942    1.0000 </r>
       <r>    3.2078    1.0000 </r>
       <r>    3.2557    1.0000 </r>
       <r>    6.7848    0.0000 </r>
       <r>    7.2170    0.0000 </r>
       <r>    7.3311    0.0000 </r>
       <r>    7.3393    0.0000 </r>
       <r>    8.2654    0.0000 </r>
       <r>    8.3053    0.0000 </r>
       <r>    8.4146    0.0000 </r>
       <r>    9.0389    0.0000 </r>
       <r>    9.1699    0.0000 </r>
       <r>    9.4586    0.0000 </r>
      </set>
      <set comment="kpoint 3">
       <r>  -40.4914    1.0000 </r>
       <r>  -40.4852    1.0000 </r>
       <r>  -40.4749    1.0000 </r>
       <r>  -40.4694    1.0000 </r>
       <r>  -40.1254    1.0000 </r>
       <r>  -40.1239    1.0000 </r>
       <r>  -11.6929    1.0000 </r>
       <r>  -11.6901    1.0000 </r>
       <r>   -8.6680    1.0000 </r>
       <r>   -8.6625    1.0000 </r>
       <r>   -8.4412    1.0000 </r>
       <r>   -8.4409    1.0000 </r>
       <r>   -8.1131    1.0000 </r>
       <r>   -8.1095    1.0000 </r>
       <r>   -4.4510    1.0000 </r>
       <r>   -4.4479    1.0000 </r>
       <r>   -1.8340    1.0000 </r>
       <r>   -1.8282    1.0000 </r>
       <r>   -1.5736    1.0000 </r>
       <r>   -1.5690    1.0000 </r>
       <r>   -1.2110    1.0000 </r>
       <r>   -1.2095    1.0000 </r>
       <r>    1.0558    1.0000 </r>
       <r>    1.0623    1.0000 </r>
       <r>    1.3542    1.0000 </r>
       <r>    1.3566    1.0000 </r>
       <r>    1.4798    1.0000 </r>
       <r>    1.4846    1.0000 </r>
       <r>    1.8002    1.0000 </r>
       <r>    1.8067    1.0000 </r>
       <r>    1.8996    1.0000 </r>
       <r>    1.9094    1.0000 </r>
       <r>    2.0279    1.0000 </r>
       <r>    2.0285    1.0000 </r>
       <r>    2.9102    1.0000 </r>
       <r>    2.9120    1.0000 </r>
       <r>    3.1778    1.0000 </r>
       <r>    3.1854    1.0000 </r>
       <r>    6.9290    0.0000 </r>
       <r>    6.9381    0.0000 </r>
       <r>    7.5801    0.0000 </r>
       <r>    7.5885    0.0000 </r>
       <r>    8.3403    0.0000 </r>
       <r>    8.3437    0.0000 </r>
       <r>    8.6648    0.0000 </r>
       <r>    8.6722    0.0000 </r>
       <r>    9.1899    0.0000 </r>
       <r>    9.2112    0.0000 </r>
      </set>
      <set comment="kpoint 4">
       <r>  -40.4913    1.0000 </r>
       <r>  -40.4849    1.0000 </r>
       <r>  -40.4751    1.0000 </r>
       <r>  -40.4695    1.0000 </r>
       <r>  -40.1254    1.0000 </r>
       <r>  -40.1239    1.0000 </r>
       <r>  -11.6454    1.0000 </r>
       <r>  -11.6227    1.0000 </r>
       <r>   -8.7767    1.0000 </r>
       <r>   -8.6690    1.0000 </r>
       <r>   -8.5167    1.0000 </r>
       <r>   -8.4275    1.0000 </r>
       <r>   -8.2949    1.0000 </r>
       <r>   -8.1836    1.0000 </r>
       <r>   -4.3561    1.0000 </r>
       <r>   -4.2431    1.0000 </r>
       <r>   -1.9345    1.0000 </r>
       <r>   -1.7728    1.0000 </r>
       <r>   -1.5396    1.0000 </r>
       <r>   -1.5149    1.0000 </r>
       <r>   -0.9245    1.0000 </r>
       <r>   -0.8542    1.0000 </r>
       <r>    0.6353    1.0000 </r>
       <r>    0.9677    1.0000 </r>
       <r>    1.0189    1.0000 </r>
       <r>    1.1972    1.0000 </r>
       <r>    1.3667    1.0000 </r>
       <r>    1.6543    1.0000 </r>
       <r>    1.7317    1.0000 </r>
       <r>    1.9347    1.0000 </r>
       <r>    2.1137    1.0000 </r>
       <r>    2.1768    1.0000 </r>
       <r>    2.4118    1.0000 </r>
       <r>    2.4904    1.0000 </r>
       <r>    2.6301    1.0000 </r>
       <r>    2.7753    1.0000 </r>
       <r>    3.0372    1.0000 </r>
       <r>    3.3168    1.0000 </r>
       <r>    6.8393    0.0000 </r>
       <r>    6.9620    0.0000 </r>
       <r>    7.3232    0.0000 </r>
       <r>    7.5272    0.0000 </r>
       <r>    8.0155    0.0000 </r>
       <r>    8.1578    0.0000 </r>
       <r>    8.2840    0.0000 </r>
       <r>    8.6862    0.0000 </r>
       <r>    9.0027    0.0000 </r>
       <r>    9.3961    0.0000 </r>
      </set>
      <set comment="kpoint 5">
       <r>  -40.4912    1.0000 </r>
       <r>  -40.4849    1.0000 </r>
       <r>  -40.4751    1.0000 </r>
       <r>  -40.4695    1.0000 </r>
       <r>  -40.1254    1.0000 </r>
       <r>  -40.1239    1.0000 </r>
       <r>  -11.6851    1.0000 </r>
       <r>  -11.5800    1.0000 </r>
       <r>   -8.7731    1.0000 </r>
       <r>   -8.7154    1.0000 </r>
       <r>   -8.4884    1.0000 </r>
       <r>   -8.4378    1.0000 </r>
       <r>   -8.2955    1.0000 </r>
       <r>   -8.1581    1.0000 </r>
       <r>   -4.4751    1.0000 </r>
       <r>   -4.1044    1.0000 </r>
       <r>   -1.9953    1.0000 </r>
       <r>   -1.6860    1.0000 </r>
       <r>   -1.6553    1.0000 </r>
       <r>   -1.3661    1.0000 </r>
       <r>   -1.1467    1.0000 </r>
       <r>   -0.6863    1.0000 </r>
       <r>    0.7148    1.0000 </r>
       <r>    0.8198    1.0000 </r>
       <r>    1.0106    1.0000 </r>
       <r>    1.1109    1.0000 </r>
       <r>    1.3665    1.0000 </r>
       <r>    1.6003    1.0000 </r>
       <r>    1.7743    1.0000 </r>
       <r>    1.9397    1.0000 </r>
       <r>    2.0921    1.0000 </r>
       <r>    2.2708    1.0000 </r>
       <r>    2.3321    1.0000 </r>
       <r>    2.5730    1.0000 </r>
       <r>    2.6626    1.0000 </r>
       <r>    2.8286    1.0000 </r>
       <r>    3.0428    1.0000 </r>
       <r>    3.3670    1.0000 </r>
       <r>    6.8032    0.0000 </r>
       <r>    7.0024    0.0000 </r>
       <r>    7.3001    0.0000 </r>
       <r>    7.4460    0.0000 </r>
       <r>    7.9947    0.0000 </r>
       <r>    8.1373    0.0000 </r>
       <r>    8.3227    0.0000 </r>
       <r>    8.5569    0.0000 </r>
       <r>    9.0335    0.0000 </r>
       <r>    9.4846    0.0000 </r>
      </set>
      <set comment="kpoint 6">
       <r>  -40.4912    1.0000 </r>
       <r>  -40.4849    1.0000 </r>
       <r>  -40.4751    1.0000 </r>
       <r>  -40.4695    1.0000 </r>
       <r>  -40.1254    1.0000 </r>
       <r>  -40.1239    1.0000 </r>
       <r>  -11.7155    1.0000 </r>
       <r>  -11.5442    1.0000 </r>
       <r>   -8.8235    1.0000 </r>
       <r>   -8.6965    1.0000 </r>
       <r>   -8.4940    1.0000 </r>
       <r>   -8.4323    1.0000 </r>
       <r>   -8.3135    1.0000 </r>
       <r>   -8.1093    1.0000 </r>
       <r>   -4.5876    1.0000 </r>
       <r>   -3.9454    1.0000 </r>
       <r>   -1.9418    1.0000 </r>
       <r>   -1.8470    1.0000 </r>
       <r>   -1.5816    1.0000 </r>
       <r>   -1.3184    1.0000 </r>
       <r>   -1.2342    1.0000 </r>
       <r>   -0.6585    1.0000 </r>
       <r>    0.5448    1.0000 </r>
       <r>    0.8560    1.0000 </r>
       <r>    0.9095    1.0000 </r>
       <r>    1.1714    1.0000 </r>
       <r>    1.3983    1.0000 </r>
       <r>    1.5125    1.0000 </r>
       <r>    1.8200    1.0000 </r>
       <r>    1.9762    1.0000 </r>
       <r>    2.1086    1.0000 </r>
       <r>    2.2563    1.0000 </r>
       <r>    2.3136    1.0000 </r>
       <r>    2.6581    1.0000 </r>
       <r>    2.7138    1.0000 </r>
       <r>    2.9823    1.0000 </r>
       <r>    3.0870    1.0000 </r>
       <r>    3.3208    1.0000 </r>
       <r>    6.7264    0.0000 </r>
       <r>    7.0489    0.0000 </r>
       <r>    7.1275    0.0000 </r>
       <r>    7.4945    0.0000 </r>
       <r>    7.8532    0.0000 </r>
       <r>    8.0659    0.0000 </r>
       <r>    8.4302    0.0000 </r>
       <r>    8.4869    0.0000 </r>
       <r>    9.1673    0.0000 </r>
       <r>    9.3930    0.0000 </r>
      </set>
      <set comment="kpoint 7">
       <r>  -40.4913    1.0000 </r>
       <r>  -40.4849    1.0000 </r>
       <r>  -40.4751    1.0000 </r>
       <r>  -40.4695    1.0000 </r>
       <r>  -40.1254    1.0000 </r>
       <r>  -40.1239    1.0000 </r>
       <r>  -11.6998    1.0000 </r>
       <r>  -11.5630    1.0000 </r>
       <r>   -8.8179    1.0000 </r>
       <r>   -8.6606    1.0000 </r>
       <r>   -8.5200    1.0000 </r>
       <r>   -8.4255    1.0000 </r>
       <r>   -8.3168    1.0000 </r>
       <r>   -8.1286    1.0000 </r>
       <r>   -4.5417    1.0000 </r>
       <r>   -4.0126    1.0000 </r>
       <r>   -1.9105    1.0000 </r>
       <r>   -1.8282    1.0000 </r>
       <r>   -1.5852    1.0000 </r>
       <r>   -1.3710    1.0000 </r>
       <r>   -1.2082    1.0000 </r>
       <r>   -0.6688    1.0000 </r>
       <r>    0.5048    1.0000 </r>
       <r>    0.8406    1.0000 </r>
       <r>    0.9975    1.0000 </r>
       <r>    1.2517    1.0000 </r>
       <r>    1.4893    1.0000 </r>
       <r>    1.5673    1.0000 </r>
       <r>    1.7532    1.0000 </r>
       <r>    1.9544    1.0000 </r>
       <r>    1.9838    1.0000 </r>
       <r>    2.2528    1.0000 </r>
       <r>    2.4506    1.0000 </r>
       <r>    2.5851    1.0000 </r>
       <r>    2.6559    1.0000 </r>
       <r>    2.8921    1.0000 </r>
       <r>    3.1322    1.0000 </r>
       <r>    3.2566    1.0000 </r>
       <r>    6.7517    0.0000 </r>
       <r>    6.9829    0.0000 </r>
       <r>    7.2268    0.0000 </r>
       <r>    7.5556    0.0000 </r>
       <r>    7.9003    0.0000 </r>
       <r>    7.9706    0.0000 </r>
       <r>    8.4097    0.0000 </r>
       <r>    8.6473    0.0000 </r>
       <r>    9.0765    0.0000 </r>
       <r>    9.4677    0.0000 </r>
      </set>
      <set comment="kpoint 8">
       <r>  -40.4911    1.0000 </r>
       <r>  -40.4846    1.0000 </r>
       <r>  -40.4754    1.0000 </r>
       <r>  -40.4696    1.0000 </r>
       <r>  -40.1254    1.0000 </r>
       <r>  -40.1239    1.0000 </r>
       <r>  -11.6231    1.0000 </r>
       <r>  -11.5184    1.0000 </r>
       <r>   -8.8998    1.0000 </r>
       <r>   -8.6871    1.0000 </r>
       <r>   -8.5958    1.0000 </r>
       <r>   -8.5034    1.0000 </r>
       <r>   -8.3193    1.0000 </r>
       <r>   -8.2925    1.0000 </r>
       <r>   -4.2475    1.0000 </r>
       <r>   -4.0142    1.0000 </r>
       <r>   -2.0862    1.0000 </r>
       <r>   -1.8317    1.0000 </r>
       <r>   -1.6507    1.0000 </r>
       <r>   -0.8774    1.0000 </r>
       <r>   -0.8003    1.0000 </r>
       <r>   -0.5336    1.0000 </r>
       <r>    0.5679    1.0000 </r>
       <r>    0.8044    1.0000 </r>
       <r>    0.9837    1.0000 </r>
       <r>    1.1179    1.0000 </r>
       <r>    1.2271    1.0000 </r>
       <r>    1.4513    1.0000 </r>
       <r>    1.4791    1.0000 </r>
       <r>    1.6484    1.0000 </r>
       <r>    1.9951    1.0000 </r>
       <r>    2.1165    1.0000 </r>
       <r>    2.4577    1.0000 </r>
       <r>    2.6669    1.0000 </r>
       <r>    3.1103    1.0000 </r>
       <r>    3.1578    1.0000 </r>
       <r>    3.4046    1.0000 </r>
       <r>    3.5095    1.0000 </r>
       <r>    6.4483    0.0000 </r>
       <r>    7.0470    0.0000 </r>
       <r>    7.2722    0.0000 </r>
       <r>    7.3857    0.0000 </r>
       <r>    7.6829    0.0000 </r>
       <r>    7.8716    0.0000 </r>
       <r>    8.2715    0.0000 </r>
       <r>    8.6621    0.0000 </r>
       <r>    8.7101    0.0000 </r>
       <r>    9.2577    0.0000 </r>
      </set>
      <set comment="kpoint 9">
       <r>  -40.4911    1.0000 </r>
       <r>  -40.4846    1.0000 </r>
       <r>  -40.4754    1.0000 </r>
       <r>  -40.4696    1.0000 </r>
       <r>  -40.1254    1.0000 </r>
       <r>  -40.1239    1.0000 </r>
       <r>  -11.6091    1.0000 </r>
       <r>  -11.5335    1.0000 </r>
       <r>   -8.8849    1.0000 </r>
       <r>   -8.7451    1.0000 </r>
       <r>   -8.5776    1.0000 </r>
       <r>   -8.4834    1.0000 </r>
       <r>   -8.3260    1.0000 </r>
       <r>   -8.2714    1.0000 </r>
       <r>   -4.2598    1.0000 </r>
       <r>   -4.0538    1.0000 </r>
       <r>   -2.0990    1.0000 </r>
       <r>   -1.7439    1.0000 </r>
       <r>   -1.5981    1.0000 </r>
       <r>   -1.0883    1.0000 </r>
       <r>   -0.6742    1.0000 </r>
       <r>   -0.3924    1.0000 </r>
       <r>    0.4458    1.0000 </r>
       <r>    0.7717    1.0000 </r>
       <r>    0.8521    1.0000 </r>
       <r>    1.0477    1.0000 </r>
       <r>    1.3038    1.0000 </r>
       <r>    1.4241    1.0000 </r>
       <r>    1.5120    1.0000 </r>
       <r>    1.7514    1.0000 </r>
       <r>    2.0127    1.0000 </r>
       <r>    2.3133    1.0000 </r>
       <r>    2.5016    1.0000 </r>
       <r>    2.7231    1.0000 </r>
       <r>    2.8568    1.0000 </r>
       <r>    3.1710    1.0000 </r>
       <r>    3.3363    1.0000 </r>
       <r>    3.4800    1.0000 </r>
       <r>    6.4372    0.0000 </r>
       <r>    7.0297    0.0000 </r>
       <r>    7.1437    0.0000 </r>
       <r>    7.4460    0.0000 </r>
       <r>    7.7232    0.0000 </r>
       <r>    7.8964    0.0000 </r>
       <r>    8.2758    0.0000 </r>
       <r>    8.5292    0.0000 </r>
       <r>    8.7944    0.0000 </r>
       <r>    9.1985    0.0000 </r>
      </set>
      <set comment="kpoint 10">
       <r>  -40.4911    1.0000 </r>
       <r>  -40.4846    1.0000 </r>
       <r>  -40.4754    1.0000 </r>
       <r>  -40.4696    1.0000 </r>
       <r>  -40.1254    1.0000 </r>
       <r>  -40.1239    1.0000 </r>
       <r>  -11.5830    1.0000 </r>
       <r>  -11.5607    1.0000 </r>
       <r>   -8.8374    1.0000 </r>
       <r>   -8.8248    1.0000 </r>
       <r>   -8.5711    1.0000 </r>
       <r>   -8.4608    1.0000 </r>
       <r>   -8.3275    1.0000 </r>
       <r>   -8.2574    1.0000 </r>
       <r>   -4.2727    1.0000 </r>
       <r>   -4.0910    1.0000 </r>
       <r>   -2.0615    1.0000 </r>
       <r>   -1.8259    1.0000 </r>
       <r>   -1.3829    1.0000 </r>
       <r>   -1.2253    1.0000 </r>
       <r>   -0.5013    1.0000 </r>
       <r>   -0.4533    1.0000 </r>
       <r>    0.4442    1.0000 </r>
       <r>    0.5859    1.0000 </r>
       <r>    0.7973    1.0000 </r>
       <r>    1.0045    1.0000 </r>
       <r>    1.3793    1.0000 </r>
       <r>    1.4035    1.0000 </r>
       <r>    1.6208    1.0000 </r>
       <r>    1.8685    1.0000 </r>
       <r>    1.9374    1.0000 </r>
       <r>    2.4429    1.0000 </r>
       <r>    2.6175    1.0000 </r>
       <r>    2.6532    1.0000 </r>
       <r>    2.9082    1.0000 </r>
       <r>    2.9242    1.0000 </r>
       <r>    3.2818    1.0000 </r>
       <r>    3.4841    1.0000 </r>
       <r>    6.4533    0.0000 </r>
       <r>    6.8353    0.0000 </r>
       <r>    7.2146    0.0000 </r>
       <r>    7.4810    0.0000 </r>
       <r>    7.6657    0.0000 </r>
       <r>    7.8927    0.0000 </r>
       <r>    8.3908    0.0000 </r>
       <r>    8.4924    0.0000 </r>
       <r>    8.8121    0.0000 </r>
       <r>    9.0473    0.0000 </r>
      </set>
      <set comment="kpoint 11">
       <r>  -40.4914    1.0000 </r>
       <r>  -40.4851    1.0000 </r>
       <r>  -40.4749    1.0000 </r>
       <r>  -40.4694    1.0000 </r>
       <r>  -40.1254    1.0000 </r>
       <r>  -40.1239    1.0000 </r>
       <r>  -11.6732    1.0000 </r>
       <r>  -11.5099    1.0000 </r>
       <r>   -8.8350    1.0000 </r>
       <r>   -8.6164    1.0000 </r>
       <r>   -8.5661    1.0000 </r>
       <r>   -8.5106    1.0000 </r>
       <r>   -8.4032    1.0000 </r>
       <r>   -8.2435    1.0000 </r>
       <r>   -4.4903    1.0000 </r>
       <r>   -3.8433    1.0000 </r>
       <r>   -1.5880    1.0000 </r>
       <r>   -1.5337    1.0000 </r>
       <r>   -1.3524    1.0000 </r>
       <r>   -1.1805    1.0000 </r>
       <r>   -1.1762    1.0000 </r>
       <r>   -1.0719    1.0000 </r>
       <r>    0.3440    1.0000 </r>
       <r>    0.6093    1.0000 </r>
       <r>    0.7249    1.0000 </r>
       <r>    0.9027    1.0000 </r>
       <r>    1.4361    1.0000 </r>
       <r>    1.6719    1.0000 </r>
       <r>    1.8047    1.0000 </r>
       <r>    2.0770    1.0000 </r>
       <r>    2.1857    1.0000 </r>
       <r>    2.2863    1.0000 </r>
       <r>    2.3775    1.0000 </r>
       <r>    2.5577    1.0000 </r>
       <r>    2.8038    1.0000 </r>
       <r>    2.8437    1.0000 </r>
       <r>    2.9553    1.0000 </r>
       <r>    3.3194    1.0000 </r>
       <r>    6.6863    0.0000 </r>
       <r>    6.6988    0.0000 </r>
       <r>    7.3681    0.0000 </r>
       <r>    7.5508    0.0000 </r>
       <r>    7.8729    0.0000 </r>
       <r>    8.0837    0.0000 </r>
       <r>    8.2063    0.0000 </r>
       <r>    8.7318    0.0000 </r>
       <r>    8.8978    0.0000 </r>
       <r>    9.2047    0.0000 </r>
      </set>
      <set comment="kpoint 12">
       <r>  -40.4914    1.0000 </r>
       <r>  -40.4851    1.0000 </r>
       <r>  -40.4749    1.0000 </r>
       <r>  -40.4694    1.0000 </r>
       <r>  -40.1254    1.0000 </r>
       <r>  -40.1239    1.0000 </r>
       <r>  -11.6850    1.0000 </r>
       <r>  -11.4948    1.0000 </r>
       <r>   -8.8486    1.0000 </r>
       <r>   -8.5981    1.0000 </r>
       <r>   -8.5857    1.0000 </r>
       <r>   -8.5282    1.0000 </r>
       <r>   -8.4676    1.0000 </r>
       <r>   -8.1352    1.0000 </r>
       <r>   -4.5470    1.0000 </r>
       <r>   -3.8184    1.0000 </r>
       <r>   -1.6587    1.0000 </r>
       <r>   -1.6017    1.0000 </r>
       <r>   -1.3166    1.0000 </r>
       <r>   -1.2180    1.0000 </r>
       <r>   -1.0116    1.0000 </r>
       <r>   -0.9413    1.0000 </r>
       <r>    0.3940    1.0000 </r>
       <r>    0.4677    1.0000 </r>
       <r>    0.6056    1.0000 </r>
       <r>    1.2415    1.0000 </r>
       <r>    1.2699    1.0000 </r>
       <r>    1.4379    1.0000 </r>
       <r>    1.6485    1.0000 </r>
       <r>    2.0638    1.0000 </r>
       <r>    2.2012    1.0000 </r>
       <r>    2.3879    1.0000 </r>
       <r>    2.3949    1.0000 </r>
       <r>    2.6362    1.0000 </r>
       <r>    2.7662    1.0000 </r>
       <r>    2.9548    1.0000 </r>
       <r>    3.0439    1.0000 </r>
       <r>    3.2822    1.0000 </r>
       <r>    6.6472    0.0000 </r>
       <r>    6.8978    0.0000 </r>
       <r>    7.3604    0.0000 </r>
       <r>    7.4312    0.0000 </r>
       <r>    7.8373    0.0000 </r>
       <r>    8.0293    0.0000 </r>
       <r>    8.2675    0.0000 </r>
       <r>    8.6778    0.0000 </r>
       <r>    8.7254    0.0000 </r>
       <r>    8.7346    0.0000 </r>
      </set>
      <set comment="kpoint 13">
       <r>  -40.4914    1.0000 </r>
       <r>  -40.4851    1.0000 </r>
       <r>  -40.4749    1.0000 </r>
       <r>  -40.4694    1.0000 </r>
       <r>  -40.1254    1.0000 </r>
       <r>  -40.1239    1.0000 </r>
       <r>  -11.6463    1.0000 </r>
       <r>  -11.5413    1.0000 </r>
       <r>   -8.7275    1.0000 </r>
       <r>   -8.6380    1.0000 </r>
       <r>   -8.5858    1.0000 </r>
       <r>   -8.5478    1.0000 </r>
       <r>   -8.4929    1.0000 </r>
       <r>   -8.1758    1.0000 </r>
       <r>   -4.3902    1.0000 </r>
       <r>   -4.0100    1.0000 </r>
       <r>   -1.6736    1.0000 </r>
       <r>   -1.5028    1.0000 </r>
       <r>   -1.2828    1.0000 </r>
       <r>   -1.2502    1.0000 </r>
       <r>   -1.0323    1.0000 </r>
       <r>   -1.0256    1.0000 </r>
       <r>    0.3877    1.0000 </r>
       <r>    0.5496    1.0000 </r>
       <r>    0.7277    1.0000 </r>
       <r>    1.2088    1.0000 </r>
       <r>    1.3439    1.0000 </r>
       <r>    1.5280    1.0000 </r>
       <r>    1.8012    1.0000 </r>
       <r>    2.0320    1.0000 </r>
       <r>    2.1937    1.0000 </r>
       <r>    2.1997    1.0000 </r>
       <r>    2.3534    1.0000 </r>
       <r>    2.5202    1.0000 </r>
       <r>    2.6995    1.0000 </r>
       <r>    2.9621    1.0000 </r>
       <r>    2.9672    1.0000 </r>
       <r>    3.2151    1.0000 </r>
       <r>    6.7450    0.0000 </r>
       <r>    7.2279    0.0000 </r>
       <r>    7.2493    0.0000 </r>
       <r>    7.4893    0.0000 </r>
       <r>    7.9801    0.0000 </r>
       <r>    8.0559    0.0000 </r>
       <r>    8.1437    0.0000 </r>
       <r>    8.3703    0.0000 </r>
       <r>    8.6915    0.0000 </r>
       <r>    8.7480    0.0000 </r>
      </set>
      <set comment="kpoint 14">
       <r>  -40.4914    1.0000 </r>
       <r>  -40.4851    1.0000 </r>
       <r>  -40.4749    1.0000 </r>
       <r>  -40.4694    1.0000 </r>
       <r>  -40.1255    1.0000 </r>
       <r>  -40.1239    1.0000 </r>
       <r>  -11.6159    1.0000 </r>
       <r>  -11.5749    1.0000 </r>
       <r>   -8.7268    1.0000 </r>
       <r>   -8.6251    1.0000 </r>
       <r>   -8.5759    1.0000 </r>
       <r>   -8.5180    1.0000 </r>
       <r>   -8.4370    1.0000 </r>
       <r>   -8.2960    1.0000 </r>
       <r>   -4.2758    1.0000 </r>
       <r>   -4.0935    1.0000 </r>
       <r>   -1.5917    1.0000 </r>
       <r>   -1.4192    1.0000 </r>
       <r>   -1.3057    1.0000 </r>
       <r>   -1.2520    1.0000 </r>
       <r>   -1.1899    1.0000 </r>
       <r>   -1.1491    1.0000 </r>
       <r>    0.4391    1.0000 </r>
       <r>    0.4885    1.0000 </r>
       <r>    0.8278    1.0000 </r>
       <r>    1.0243    1.0000 </r>
       <r>    1.7138    1.0000 </r>
       <r>    1.7680    1.0000 </r>
       <r>    1.9244    1.0000 </r>
       <r>    1.9753    1.0000 </r>
       <r>    2.0203    1.0000 </r>
       <r>    2.1223    1.0000 </r>
       <r>    2.2037    1.0000 </r>
       <r>    2.4808    1.0000 </r>
       <r>    2.7480    1.0000 </r>
       <r>    2.8617    1.0000 </r>
       <r>    3.0678    1.0000 </r>
       <r>    3.1126    1.0000 </r>
       <r>    6.7737    0.0000 </r>
[...]
       <r>   -8.2698    1.0000 </r>
       <r>   -4.2600    1.0000 </r>
       <r>   -4.0553    1.0000 </r>
       <r>   -2.1002    1.0000 </r>
       <r>   -1.7459    1.0000 </r>
       <r>   -1.5974    1.0000 </r>
       <r>   -1.0889    1.0000 </r>
       <r>   -0.6742    1.0000 </r>
       <r>   -0.3948    1.0000 </r>
       <r>    0.4455    1.0000 </r>
       <r>    0.7765    1.0000 </r>
       <r>    0.8490    1.0000 </r>
       <r>    1.0447    1.0000 </r>
       <r>    1.3018    1.0000 </r>
       <r>    1.4246    1.0000 </r>
       <r>    1.5097    1.0000 </r>
       <r>    1.7498    1.0000 </r>
       <r>    2.0144    1.0000 </r>
       <r>    2.3167    1.0000 </r>
       <r>    2.5008    1.0000 </r>
       <r>    2.7318    1.0000 </r>
       <r>    2.8564    1.0000 </r>
       <r>    3.1683    1.0000 </r>
       <r>    3.3349    1.0000 </r>
       <r>    3.4789    1.0000 </r>
       <r>    6.4384    0.0000 </r>
       <r>    7.0249    0.0000 </r>
       <r>    7.1376    0.0000 </r>
       <r>    7.4460    0.0000 </r>
       <r>    7.7212    0.0000 </r>
       <r>    7.8964    0.0000 </r>
       <r>    8.2780    0.0000 </r>
       <r>    8.5308    0.0000 </r>
       <r>    8.7963    0.0000 </r>
       <r>    9.2119    0.0000 </r>
      </set>
      <set comment="kpoint 36">
       <r>  -40.4911    1.0000 </r>
       <r>  -40.4846    1.0000 </r>
       <r>  -40.4754    1.0000 </r>
       <r>  -40.4696    1.0000 </r>
       <r>  -40.1254    1.0000 </r>
       <r>  -40.1239    1.0000 </r>
       <r>  -11.6235    1.0000 </r>
       <r>  -11.5190    1.0000 </r>
       <r>   -8.8982    1.0000 </r>
       <r>   -8.6891    1.0000 </r>
       <r>   -8.5977    1.0000 </r>
       <r>   -8.5020    1.0000 </r>
       <r>   -8.3163    1.0000 </r>
       <r>   -8.2909    1.0000 </r>
       <r>   -4.2489    1.0000 </r>
       <r>   -4.0142    1.0000 </r>
       <r>   -2.0891    1.0000 </r>
       <r>   -1.8332    1.0000 </r>
       <r>   -1.6486    1.0000 </r>
       <r>   -0.8784    1.0000 </r>
       <r>   -0.7979    1.0000 </r>
       <r>   -0.5380    1.0000 </r>
       <r>    0.5659    1.0000 </r>
       <r>    0.8034    1.0000 </r>
       <r>    0.9889    1.0000 </r>
       <r>    1.1182    1.0000 </r>
       <r>    1.2251    1.0000 </r>
       <r>    1.4427    1.0000 </r>
       <r>    1.4773    1.0000 </r>
       <r>    1.6493    1.0000 </r>
       <r>    1.9972    1.0000 </r>
       <r>    2.1209    1.0000 </r>
       <r>    2.4573    1.0000 </r>
       <r>    2.6774    1.0000 </r>
       <r>    3.1043    1.0000 </r>
       <r>    3.1532    1.0000 </r>
       <r>    3.4046    1.0000 </r>
       <r>    3.5119    1.0000 </r>
       <r>    6.4499    0.0000 </r>
       <r>    7.0387    0.0000 </r>
       <r>    7.2695    0.0000 </r>
       <r>    7.3831    0.0000 </r>
       <r>    7.6882    0.0000 </r>
       <r>    7.8667    0.0000 </r>
       <r>    8.2705    0.0000 </r>
       <r>    8.6729    0.0000 </r>
       <r>    8.7053    0.0000 </r>
       <r>    9.2668    0.0000 </r>
      </set>
     </set>
    </set>
   </array>
  </eigenvalues>
  <separator name="orbital magnetization" >
   <v name="MAGDIPOLOUT">      0.00000000      0.00000000      0.00000000</v>
  </separator>
  <dos>
   <i name="efermi">      3.65472532 </i>
   <total>
    <array>
     <dimension dim="1">gridpoints</dimension>
     <dimension dim="2">spin</dimension>
     <field>energy</field>
     <field>total</field>
     <field>integrated</field>
     <set>
      <set comment="spin 1">
       <r>   -43.0038     0.0000     0.0000 </r>
       <r>   -42.8195     0.0000     0.0000 </r>
       <r>   -42.6353     0.0000     0.0000 </r>
       <r>   -42.4510     0.0000     0.0000 </r>
       <r>   -42.2668     0.0000     0.0000 </r>
       <r>   -42.0826     0.0000     0.0000 </r>
       <r>   -41.8983     0.0000     0.0000 </r>
       <r>   -41.7141     0.0000     0.0000 </r>
       <r>   -41.5299     0.0000     0.0000 </r>
       <r>   -41.3456     0.0000     0.0000 </r>
       <r>   -41.1614     0.0000     0.0000 </r>
       <r>   -40.9771     0.0000     0.0000 </r>
       <r>   -40.7929     0.0000     0.0000 </r>
       <r>   -40.6087     0.0000     0.0000 </r>
       <r>   -40.4244     0.0000     8.0000 </r>
       <r>   -40.2402     0.0000     8.0000 </r>
       <r>   -40.0559     0.0000    12.0000 </r>
       <r>   -39.8717     0.0000    12.0000 </r>
       <r>   -39.6875     0.0000    12.0000 </r>
       <r>   -39.5032     0.0000    12.0000 </r>
       <r>   -39.3190     0.0000    12.0000 </r>
       <r>   -39.1347     0.0000    12.0000 </r>
       <r>   -38.9505     0.0000    12.0000 </r>
       <r>   -38.7663     0.0000    12.0000 </r>
       <r>   -38.5820     0.0000    12.0000 </r>
       <r>   -38.3978     0.0000    12.0000 </r>
       <r>   -38.2136     0.0000    12.0000 </r>
       <r>   -38.0293     0.0000    12.0000 </r>
       <r>   -37.8451     0.0000    12.0000 </r>
       <r>   -37.6608     0.0000    12.0000 </r>
       <r>   -37.4766     0.0000    12.0000 </r>
       <r>   -37.2924     0.0000    12.0000 </r>
       <r>   -37.1081     0.0000    12.0000 </r>
       <r>   -36.9239     0.0000    12.0000 </r>
       <r>   -36.7396     0.0000    12.0000 </r>
       <r>   -36.5554     0.0000    12.0000 </r>
       <r>   -36.3712     0.0000    12.0000 </r>
       <r>   -36.1869     0.0000    12.0000 </r>
       <r>   -36.0027     0.0000    12.0000 </r>
       <r>   -35.8184     0.0000    12.0000 </r>
       <r>   -35.6342     0.0000    12.0000 </r>
       <r>   -35.4500     0.0000    12.0000 </r>
       <r>   -35.2657     0.0000    12.0000 </r>
       <r>   -35.0815     0.0000    12.0000 </r>
       <r>   -34.8973     0.0000    12.0000 </r>
       <r>   -34.7130     0.0000    12.0000 </r>
       <r>   -34.5288     0.0000    12.0000 </r>
       <r>   -34.3445     0.0000    12.0000 </r>
       <r>   -34.1603     0.0000    12.0000 </r>
       <r>   -33.9761     0.0000    12.0000 </r>
       <r>   -33.7918     0.0000    12.0000 </r>
       <r>   -33.6076     0.0000    12.0000 </r>
       <r>   -33.4233     0.0000    12.0000 </r>
       <r>   -33.2391     0.0000    12.0000 </r>
       <r>   -33.0549     0.0000    12.0000 </r>
       <r>   -32.8706     0.0000    12.0000 </r>
       <r>   -32.6864     0.0000    12.0000 </r>
       <r>   -32.5021     0.0000    12.0000 </r>
       <r>   -32.3179     0.0000    12.0000 </r>
       <r>   -32.1337     0.0000    12.0000 </r>
       <r>   -31.9494     0.0000    12.0000 </r>
       <r>   -31.7652     0.0000    12.0000 </r>
       <r>   -31.5810     0.0000    12.0000 </r>
       <r>   -31.3967     0.0000    12.0000 </r>
       <r>   -31.2125     0.0000    12.0000 </r>
       <r>   -31.0282     0.0000    12.0000 </r>
       <r>   -30.8440     0.0000    12.0000 </r>
       <r>   -30.6598     0.0000    12.0000 </r>
       <r>   -30.4755     0.0000    12.0000 </r>
       <r>   -30.2913     0.0000    12.0000 </r>
       <r>   -30.1070     0.0000    12.0000 </r>
       <r>   -29.9228     0.0000    12.0000 </r>
       <r>   -29.7386     0.0000    12.0000 </r>
       <r>   -29.5543     0.0000    12.0000 </r>
       <r>   -29.3701     0.0000    12.0000 </r>
       <r>   -29.1859     0.0000    12.0000 </r>
       <r>   -29.0016     0.0000    12.0000 </r>
       <r>   -28.8174     0.0000    12.0000 </r>
       <r>   -28.6331     0.0000    12.0000 </r>
       <r>   -28.4489     0.0000    12.0000 </r>
       <r>   -28.2647     0.0000    12.0000 </r>
       <r>   -28.0804     0.0000    12.0000 </r>
       <r>   -27.8962     0.0000    12.0000 </r>
       <r>   -27.7119     0.0000    12.0000 </r>
       <r>   -27.5277     0.0000    12.0000 </r>
       <r>   -27.3435     0.0000    12.0000 </r>
       <r>   -27.1592     0.0000    12.0000 </r>
       <r>   -26.9750     0.0000    12.0000 </r>
       <r>   -26.7907     0.0000    12.0000 </r>
       <r>   -26.6065     0.0000    12.0000 </r>
       <r>   -26.4223     0.0000    12.0000 </r>
       <r>   -26.2380     0.0000    12.0000 </r>
       <r>   -26.0538     0.0000    12.0000 </r>
       <r>   -25.8696     0.0000    12.0000 </r>
       <r>   -25.6853     0.0000    12.0000 </r>
       <r>   -25.5011     0.0000    12.0000 </r>
       <r>   -25.3168     0.0000    12.0000 </r>
       <r>   -25.1326     0.0000    12.0000 </r>
       <r>   -24.9484     0.0000    12.0000 </r>
       <r>   -24.7641     0.0000    12.0000 </r>
       <r>   -24.5799     0.0000    12.0000 </r>
       <r>   -24.3956     0.0000    12.0000 </r>
       <r>   -24.2114     0.0000    12.0000 </r>
       <r>   -24.0272     0.0000    12.0000 </r>
       <r>   -23.8429     0.0000    12.0000 </r>
       <r>   -23.6587     0.0000    12.0000 </r>
       <r>   -23.4744     0.0000    12.0000 </r>
       <r>   -23.2902     0.0000    12.0000 </r>
       <r>   -23.1060     0.0000    12.0000 </r>
       <r>   -22.9217     0.0000    12.0000 </r>
       <r>   -22.7375     0.0000    12.0000 </r>
       <r>   -22.5533     0.0000    12.0000 </r>
       <r>   -22.3690     0.0000    12.0000 </r>
       <r>   -22.1848     0.0000    12.0000 </r>
       <r>   -22.0005     0.0000    12.0000 </r>
       <r>   -21.8163     0.0000    12.0000 </r>
       <r>   -21.6321     0.0000    12.0000 </r>
       <r>   -21.4478     0.0000    12.0000 </r>
       <r>   -21.2636     0.0000    12.0000 </r>
       <r>   -21.0793     0.0000    12.0000 </r>
       <r>   -20.8951     0.0000    12.0000 </r>
       <r>   -20.7109     0.0000    12.0000 </r>
       <r>   -20.5266     0.0000    12.0000 </r>
       <r>   -20.3424     0.0000    12.0000 </r>
       <r>   -20.1581     0.0000    12.0000 </r>
       <r>   -19.9739     0.0000    12.0000 </r>
       <r>   -19.7897     0.0000    12.0000 </r>
       <r>   -19.6054     0.0000    12.0000 </r>
       <r>   -19.4212     0.0000    12.0000 </r>
       <r>   -19.2370     0.0000    12.0000 </r>
       <r>   -19.0527     0.0000    12.0000 </r>
       <r>   -18.8685     0.0000    12.0000 </r>
       <r>   -18.6842     0.0000    12.0000 </r>
       <r>   -18.5000     0.0000    12.0000 </r>
       <r>   -18.3158     0.0000    12.0000 </r>
       <r>   -18.1315     0.0000    12.0000 </r>
       <r>   -17.9473     0.0000    12.0000 </r>
       <r>   -17.7630     0.0000    12.0000 </r>
       <r>   -17.5788     0.0000    12.0000 </r>
       <r>   -17.3946     0.0000    12.0000 </r>
       <r>   -17.2103     0.0000    12.0000 </r>
       <r>   -17.0261     0.0000    12.0000 </r>
       <r>   -16.8418     0.0000    12.0000 </r>
       <r>   -16.6576     0.0000    12.0000 </r>
       <r>   -16.4734     0.0000    12.0000 </r>
       <r>   -16.2891     0.0000    12.0000 </r>
       <r>   -16.1049     0.0000    12.0000 </r>
       <r>   -15.9207     0.0000    12.0000 </r>
       <r>   -15.7364     0.0000    12.0000 </r>
       <r>   -15.5522     0.0000    12.0000 </r>
       <r>   -15.3679     0.0000    12.0000 </r>
       <r>   -15.1837     0.0000    12.0000 </r>
       <r>   -14.9995     0.0000    12.0000 </r>
       <r>   -14.8152     0.0000    12.0000 </r>
       <r>   -14.6310     0.0000    12.0000 </r>
       <r>   -14.4467     0.0000    12.0000 </r>
       <r>   -14.2625     0.0000    12.0000 </r>
       <r>   -14.0783     0.0000    12.0000 </r>
       <r>   -13.8940     0.0000    12.0000 </r>
       <r>   -13.7098     0.0000    12.0000 </r>
       <r>   -13.5255     0.0000    12.0000 </r>
       <r>   -13.3413     0.0000    12.0000 </r>
       <r>   -13.1571     0.0000    12.0000 </r>
       <r>   -12.9728     0.0000    12.0000 </r>
       <r>   -12.7886     0.0000    12.0000 </r>
       <r>   -12.6044     0.0000    12.0000 </r>
       <r>   -12.4201     0.0000    12.0000 </r>
       <r>   -12.2359     0.0000    12.0000 </r>
       <r>   -12.0516     0.0000    12.0000 </r>
       <r>   -11.8674     0.0000    12.0000 </r>
       <r>   -11.6832     8.4918    12.3266 </r>
       <r>   -11.4989    12.7114    15.5664 </r>
       <r>   -11.3147     0.0000    16.0000 </r>
       <r>   -11.1304     0.0000    16.0000 </r>
       <r>   -10.9462     0.0000    16.0000 </r>
       <r>   -10.7620     0.0000    16.0000 </r>
       <r>   -10.5777     0.0000    16.0000 </r>
       <r>   -10.3935     0.0000    16.0000 </r>
       <r>   -10.2092     0.0000    16.0000 </r>
       <r>   -10.0250     0.0000    16.0000 </r>
       <r>    -9.8408     0.0000    16.0000 </r>
       <r>    -9.6565     0.0000    16.0000 </r>
       <r>    -9.4723     0.0000    16.0000 </r>
       <r>    -9.2881     0.0000    16.0000 </r>
       <r>    -9.1038     0.0000    16.0000 </r>
       <r>    -8.9196     0.0000    16.0000 </r>
       <r>    -8.7353    13.3707    18.9576 </r>
       <r>    -8.5511    21.0982    21.6660 </r>
       <r>    -8.3669    10.1478    25.0931 </r>
       <r>    -8.1826     5.6647    27.5095 </r>
       <r>    -7.9984     0.1584    27.9979 </r>
       <r>    -7.8141     0.0000    28.0000 </r>
       <r>    -7.6299     0.0000    28.0000 </r>
       <r>    -7.4457     0.0000    28.0000 </r>
       <r>    -7.2614     0.0000    28.0000 </r>
       <r>    -7.0772     0.0000    28.0000 </r>
       <r>    -6.8929     0.0000    28.0000 </r>
       <r>    -6.7087     0.0000    28.0000 </r>
       <r>    -6.5245     0.0000    28.0000 </r>
       <r>    -6.3402     0.0000    28.0000 </r>
       <r>    -6.1560     0.0000    28.0000 </r>
       <r>    -5.9718     0.0000    28.0000 </r>
       <r>    -5.7875     0.0000    28.0000 </r>
       <r>    -5.6033     0.0000    28.0000 </r>
       <r>    -5.4190     0.0000    28.0000 </r>
       <r>    -5.2348     0.0000    28.0000 </r>
       <r>    -5.0506     0.0000    28.0000 </r>
       <r>    -4.8663     0.0000    28.0000 </r>
       <r>    -4.6821     0.4706    28.0234 </r>
       <r>    -4.4978     2.5506    28.2889 </r>
       <r>    -4.3136     5.1411    28.9577 </r>
       <r>    -4.1294     3.4728    30.1395 </r>
       <r>    -3.9451     5.8803    31.3128 </r>
       <r>    -3.7609     0.5834    31.9849 </r>
       <r>    -3.5766     0.0000    32.0000 </r>
       <r>    -3.3924     0.0000    32.0000 </r>
       <r>    -3.2082     0.0000    32.0000 </r>
       <r>    -3.0239     0.0000    32.0000 </r>
       <r>    -2.8397     0.0000    32.0000 </r>
       <r>    -2.6555     0.0000    32.0000 </r>
       <r>    -2.4712     0.0000    32.0000 </r>
       <r>    -2.2870     0.0000    32.0000 </r>
       <r>    -2.1027     0.0000    32.0000 </r>
       <r>    -1.9185     8.4821    32.8339 </r>
       <r>    -1.7343    11.2285    34.2559 </r>
       <r>    -1.5500    10.2984    36.2257 </r>
       <r>    -1.3658     8.1149    37.7212 </r>
       <r>    -1.1815     9.3770    39.1354 </r>
       <r>    -0.9973     6.8226    40.5537 </r>
       <r>    -0.8131     6.3998    41.7331 </r>
       <r>    -0.6288     6.0152    42.9239 </r>
       <r>    -0.4446     1.6474    43.9720 </r>
       <r>    -0.2604     0.0000    44.0000 </r>
       <r>    -0.0761     0.0000    44.0000 </r>
       <r>     0.1081     0.2398    44.0058 </r>
       <r>     0.2924     4.0469    44.3177 </r>
       <r>     0.4766     9.9289    45.5233 </r>
       <r>     0.6608     8.1555    47.0415 </r>
       <r>     0.8451    11.2162    48.8726 </r>
       <r>     1.0293     7.5946    50.5982 </r>
       <r>     1.2136     7.3315    52.0076 </r>
       <r>     1.3978    13.7984    53.7178 </r>
       <r>     1.5820    11.0259    56.0212 </r>
       <r>     1.7663    11.5715    58.0614 </r>
       <r>     1.9505    11.3907    59.9029 </r>
       <r>     2.1348     7.1158    61.8273 </r>
       <r>     2.3190     9.6796    63.8223 </r>
       <r>     2.5032     9.1685    65.1887 </r>
       <r>     2.6875    15.7994    67.5531 </r>
       <r>     2.8717    11.5558    69.4591 </r>
       <r>     3.0559    12.9720    71.4941 </r>
       <r>     3.2402     9.0956    73.2608 </r>
       <r>     3.4244     6.7627    75.0724 </r>
       <r>     3.6087     1.5228    75.9901 </r>
       <r>     3.7929     0.0000    76.0000 </r>
       <r>     3.9771     0.0000    76.0000 </r>
       <r>     4.1614     0.0000    76.0000 </r>
       <r>     4.3456     0.0000    76.0000 </r>
       <r>     4.5299     0.0000    76.0000 </r>
       <r>     4.7141     0.0000    76.0000 </r>
       <r>     4.8983     0.0000    76.0000 </r>
       <r>     5.0826     0.0000    76.0000 </r>
       <r>     5.2668     0.0000    76.0000 </r>
       <r>     5.4511     0.0000    76.0000 </r>
       <r>     5.6353     0.0000    76.0000 </r>
       <r>     5.8195     0.0000    76.0000 </r>
       <r>     6.0038     0.0000    76.0000 </r>
       <r>     6.1880     0.5308    76.0150 </r>
       <r>     6.3722     3.4464    76.4041 </r>
       <r>     6.5565     3.8918    77.1580 </r>
       <r>     6.7407     6.8097    78.0405 </r>
       <r>     6.9250     5.6412    79.1992 </r>
       <r>     7.1092     1.3320    79.9589 </r>
       <r>     7.2934     8.2926    81.6569 </r>
       <r>     7.4777    13.4702    82.9184 </r>
       <r>     7.6619     4.5729    84.2876 </r>
       <r>     7.8462    12.3222    85.6538 </r>
       <r>     8.0304     7.6061    87.3154 </r>
       <r>     8.2146     8.7658    88.7645 </r>
       <r>     8.3989     8.1820    90.1879 </r>
       <r>     8.5831     5.0336    91.5030 </r>
       <r>     8.7674     4.7353    92.2088 </r>
       <r>     8.9516     4.4084    93.1276 </r>
       <r>     9.1358     5.0740    93.9805 </r>
       <r>     9.3201     7.4409    94.9215 </r>
       <r>     9.5043     0.9453    95.9503 </r>
       <r>     9.6885     0.0337    95.9992 </r>
       <r>     9.8728     0.0000    96.0000 </r>
       <r>    10.0570     0.0000    96.0000 </r>
       <r>    10.2413     0.0000    96.0000 </r>
       <r>    10.4255     0.0000    96.0000 </r>
       <r>    10.6097     0.0000    96.0000 </r>
       <r>    10.7940     0.0000    96.0000 </r>
       <r>    10.9782     0.0000    96.0000 </r>
       <r>    11.1625     0.0000    96.0000 </r>
       <r>    11.3467     0.0000    96.0000 </r>
       <r>    11.5309     0.0000    96.0000 </r>
       <r>    11.7152     0.0000    96.0000 </r>
       <r>    11.8994     0.0000    96.0000 </r>
       <r>    12.0837     0.0000    96.0000 </r>
       <r>    12.2679     0.0000    96.0000 </r>
      </set>
     </set>
    </array>
   </total>
  </dos>
 </calculation>
 <structure name="finalpos" >
  <crystal>
   <varray name="basis" >
    <v>      12.61026521      -2.77122818      -0.52611698 </v>
    <v>      -2.95935146       4.88233412       1.34417438 </v>
    <v>      -0.68243413       1.63577693       5.36393177 </v>
   </varray>
   <i name="volume">    261.86311480 </i>
   <varray name="rec_basis" >
    <v>       0.09161175       0.05711552      -0.00576243 </v>
    <v>       0.05347858       0.25693409      -0.07155036 </v>
    <v>      -0.00441580      -0.05878426       0.20379537 </v>
   </varray>
  </crystal>
  <varray name="positions" >
   <v>       0.21225787       0.97592086       0.89583241 </v>
   <v>       0.71207668       0.12791515       0.39692770 </v>
   <v>       0.17244219       0.27587531       0.57172843 </v>
   <v>       0.39020478       0.10006119       0.77565694 </v>
   <v>       0.03621103       0.44526675       0.01621534 </v>
   <v>       0.25053019       0.07361245       0.21756167 </v>
   <v>       0.75103419       0.82506843       0.71926758 </v>
   <v>       0.53544041       0.00840720       0.51765103 </v>
   <v>       0.67263361       0.03214556       0.07344135 </v>
   <v>       0.88930857       0.65770295       0.27607343 </v>
   <v>       0.51044144       0.42543394       0.03227889 </v>
   <v>       0.41365573       0.69273593       0.25464519 </v>
   <v>       0.21486997       0.47699787       0.88834051 </v>
   <v>       0.91352331       0.65800604       0.75759028 </v>
   <v>       0.01048958       0.43960771       0.53337052 </v>
   <v>       0.71296143       0.63715997       0.39426190 </v>
  </varray>
 </structure>
</modeling>
