unknown system                          
           1
    12.609369   -2.771133   -0.525637
    -2.959017    4.882532    1.344001
    -0.682171    1.635774    5.363900
   P    S    Li
   2   8   6
Direct configuration=     1
   0.21231104  0.97598768  0.89582129
   0.71201766  0.12781317  0.39697003
   0.17242955  0.27586192  0.57170256
   0.39018480  0.10005858  0.77568902
   0.03619808  0.44519375  0.01623809
   0.25051768  0.07361878  0.21755324
   0.75103579  0.82502376  0.71929911
   0.53546843  0.00841694  0.51765584
   0.67263098  0.03213948  0.07345668
   0.88933145  0.65774485  0.27607961
   0.51043686  0.42548855  0.03226389
   0.41365485  0.69280573  0.25461073
   0.21490003  0.47708572  0.88825768
   0.91351647  0.65795705  0.75761397
   0.01048861  0.43957526  0.53337091
   0.71295868  0.63714606  0.39426051
unknown system                          
           1
    12.610274   -2.771229   -0.526122
    -2.959355    4.882332    1.344176
    -0.682437    1.635777    5.363932
   P    S    Li
   2   8   6
Direct configuration=     2
   0.21225733  0.97592018  0.89583253
   0.71207727  0.12791618  0.39692727
   0.17244232  0.27587544  0.57172869
   0.39020498  0.10006121  0.77565661
   0.03621116  0.44526748  0.01621511
   0.25053032  0.07361239  0.21756176
   0.75103417  0.82506888  0.71926726
   0.53544013  0.00840710  0.51765098
   0.67263364  0.03214562  0.07344120
   0.88930834  0.65770253  0.27607337
   0.51044149  0.42543339  0.03227904
   0.41365574  0.69273523  0.25464554
   0.21486967  0.47699698  0.88834135
   0.91352338  0.65800653  0.75759004
   0.01048959  0.43960804  0.53337052
   0.71296145  0.63716011  0.39426191
unknown system                          
           1
    12.610265   -2.771228   -0.526117
    -2.959351    4.882334    1.344174
    -0.682434    1.635777    5.363932
   P    S    Li
   2   8   6
Direct configuration=     3
   0.21225787  0.97592086  0.89583241
   0.71207668  0.12791515  0.39692770
   0.17244219  0.27587531  0.57172843
   0.39020478  0.10006119  0.77565694
   0.03621103  0.44526675  0.01621534
   0.25053019  0.07361245  0.21756167
   0.75103419  0.82506843  0.71926758
   0.53544041  0.00840720  0.51765103
   0.67263361  0.03214556  0.07344135
   0.88930857  0.65770295  0.27607343
   0.51044144  0.42543394  0.03227889
   0.41365573  0.69273593  0.25464519
   0.21486997  0.47699787  0.88834051
   0.91352331  0.65800604  0.75759028
   0.01048958  0.43960771  0.53337052
   0.71296143  0.63715997  0.39426190
